LAMMPS (29 Aug 2024 - Update 3)
OMP_NUM_THREADS environment is not set. Defaulting to 1 thread. (../comm.cpp:99)
  using 1 OpenMP thread(s) per MPI task
variable project_name index PZT
variable T equal 800 # Kelvin
variable dt equal 0.0005 # ps
variable p equal 1 # bar

variable d1 equal 1000 # dump interval
variable d2 equal 10000 # thermo interval
variable d3 equal 100000 # restart interval
variable Tdamp equal 100.0*${dt}
variable Tdamp equal 100.0*0.0005
variable Pdamp equal 1000.0*${dt}
variable Pdamp equal 1000.0*0.0005
# Input Script LAMMPS
# ------------------------ INITIALIZATION -----------------------------------------------
units metal
dimension 3
boundary p p p
atom_style atomic
read_data Ti_0p50.lmp
Reading data file ...
  orthogonal box = (0 0 0) to (40.3 40.3 40.3)
  4 by 4 by 4 MPI processor grid
  reading atoms ...
  5000 atoms
  read_data CPU = 0.127 seconds
change_box all triclinic
Changing box ...
  triclinic box = (0 0 0) to (40.3 40.3 40.3) with tilt (0 0 0)
neighbor 2.0 bin
neigh_modify every 1 delay 0 check yes page 100000 one 2000 # default
comm_modify vel yes
# ------------------------ FORCE FIELD ---------------------------------------------
pair_style nep
pair_coeff * * ./nep.txt Ti Zr Pb O
#------------------------- INITIAL SETTING ------------------------------------------
timestep ${dt}
timestep 0.0005
thermo ${d2}
thermo 10000
thermo_style custom step temp etotal pe ke vol xlo xhi ylo yhi zlo zhi xy xz yz press pxx pyy pzz pyz pxz pxy

velocity all set 0 0 0
velocity all create 800 4928459 mom yes rot yes dist gaussian
run 0
WARNING: No fixes with time integration, atoms won't move (../verlet.cpp:60)
Neighbor list info ...
  update: every = 1 steps, delay = 0 steps, check = yes
  max neighbors/atom: 2000, page size: 100000
  master list distance cutoff = 10
  ghost atom cutoff = 10
  binsize = 5, bins = 9 9 9
  1 neighbor lists, perpetual/occasional/extra = 1 0 0
  (1) pair nep, perpetual
      attributes: full, newton on
      pair build: full/bin/atomonly
      stencil: full/bin/3d
      bin: standard
Per MPI rank memory allocation (min/avg/max) = 3.182 | 3.182 | 3.182 Mbytes
   Step          Temp          TotEng         PotEng         KinEng         Volume          Xlo            Xhi            Ylo            Yhi            Zlo            Zhi             Xy             Xz             Yz           Press           Pxx            Pyy            Pzz            Pyz            Pxz            Pxy      
         0   800           -39685.857     -40202.794      516.93717      65450.827      0              40.3           0              40.3           0              40.3           0              0              0              23878.657      24197.752      23798.108      23640.109      50.868671     -95.602028     -163.47444    
Loop time of 0.000518079 on 64 procs for 0 steps with 5000 atoms

72.9% CPU use with 64 MPI tasks x 1 OpenMP threads

MPI task timing breakdown:
Section |  min time  |  avg time  |  max time  |%varavg| %total
---------------------------------------------------------------
Pair    | 0          | 0          | 0          |   0.0 |  0.00
Neigh   | 0          | 0          | 0          |   0.0 |  0.00
Comm    | 0          | 0          | 0          |   0.0 |  0.00
Output  | 0          | 0          | 0          |   0.0 |  0.00
Modify  | 0          | 0          | 0          |   0.0 |  0.00
Other   |            | 0.0005181  |            |       |100.00

Nlocal:         78.125 ave          89 max          71 min
Histogram: 8 24 0 0 0 24 0 0 0 8
Nghost:        1636.88 ave        1644 max        1626 min
Histogram: 8 0 0 0 24 0 0 0 24 8
Neighs:              0 ave           0 max           0 min
Histogram: 64 0 0 0 0 0 0 0 0 0
FullNghs:        24125 ave       27596 max       21824 min
Histogram: 8 24 0 0 0 24 0 0 0 8

Total # of neighbors = 1544000
Ave neighs/atom = 308.8
Neighbor list builds = 0
Dangerous builds = 0
velocity all scale 800

fix 1 all nve
run 10000
Per MPI rank memory allocation (min/avg/max) = 3.182 | 3.182 | 3.182 Mbytes
   Step          Temp          TotEng         PotEng         KinEng         Volume          Xlo            Xhi            Ylo            Yhi            Zlo            Zhi             Xy             Xz             Yz           Press           Pxx            Pyy            Pzz            Pyz            Pxz            Pxy      
         0   800           -39685.857     -40202.794      516.93717      65450.827      0              40.3           0              40.3           0              40.3           0              0              0              23878.657      24197.752      23798.108      23640.109      50.868671     -95.602028     -163.47444    
     10000   651.23083     -39685.875     -40106.681      420.80678      65450.827      0              40.3           0              40.3           0              40.3           0              0              0              39466.668      40131.486      38726.507      39542.011      611.86792     -128.42609     -175.50094    
Loop time of 483.616 on 64 procs for 10000 steps with 5000 atoms

Performance: 0.893 ns/day, 26.868 hours/ns, 20.678 timesteps/s, 103.388 katom-step/s
99.8% CPU use with 64 MPI tasks x 1 OpenMP threads

MPI task timing breakdown:
Section |  min time  |  avg time  |  max time  |%varavg| %total
---------------------------------------------------------------
Pair    | 363.31     | 400.87     | 450.25     | 104.9 | 82.89
Neigh   | 0.031798   | 0.037918   | 0.080294   |   3.2 |  0.01
Comm    | 15.673     | 71.727     | 115.06     | 260.5 | 14.83
Output  | 0.001018   | 0.0025477  | 0.006051   |   3.1 |  0.00
Modify  | 0.012335   | 0.013348   | 0.015794   |   0.5 |  0.00
Other   |            | 10.96      |            |       |  2.27

Nlocal:         78.125 ave          94 max          64 min
Histogram: 2 4 6 12 12 7 10 6 2 3
Nghost:        1876.48 ave        1931 max        1835 min
Histogram: 1 7 10 13 8 14 6 0 3 2
Neighs:              0 ave           0 max           0 min
Histogram: 64 0 0 0 0 0 0 0 0 0
FullNghs:      24509.5 ave       29929 max       19992 min
Histogram: 2 4 10 12 9 11 9 4 1 2

Total # of neighbors = 1568608
Ave neighs/atom = 313.7216
Neighbor list builds = 49
Dangerous builds = 0
unfix 1
minimize 1.0e-8 1.0e-8 500000 500000
Per MPI rank memory allocation (min/avg/max) = 4.309 | 4.309 | 4.309 Mbytes
   Step          Temp          TotEng         PotEng         KinEng         Volume          Xlo            Xhi            Ylo            Yhi            Zlo            Zhi             Xy             Xz             Yz           Press           Pxx            Pyy            Pzz            Pyz            Pxz            Pxy      
     10000   651.23083     -39685.875     -40106.681      420.80678      65450.827      0              40.3           0              40.3           0              40.3           0              0              0              39466.668      40131.486      38726.507      39542.011      611.86792     -128.42609     -175.50094    
     10309   651.23083     -40126.993     -40547.8        420.80678      65450.827      0              40.3           0              40.3           0              40.3           0              0              0              24550.225      24657.954      24240.092      24752.628      3486.5678     -3210.1563     -3202.7837    
Loop time of 31.4465 on 64 procs for 309 steps with 5000 atoms

99.8% CPU use with 64 MPI tasks x 1 OpenMP threads

Minimization stats:
  Stopping criterion = energy tolerance
  Energy initial, next-to-last, final = 
     -40106.6814411662  -40547.7992209986  -40547.7995902734
  Force two-norm initial, final = 96.503974 0.090885756
  Force max component initial, final = 4.1599036 0.011618065
  Final line search alpha, max atom move = 1 0.011618065
  Iterations, force evaluations = 309 610

MPI task timing breakdown:
Section |  min time  |  avg time  |  max time  |%varavg| %total
---------------------------------------------------------------
Pair    | 19.816     | 24.942     | 30.792     |  46.8 | 79.32
Neigh   | 0.00057367 | 0.00076082 | 0.00096366 |   0.0 |  0.00
Comm    | 0.56187    | 5.3698     | 10.699     | 103.4 | 17.08
Output  | 0          | 0          | 0          |   0.0 |  0.00
Modify  | 0          | 0          | 0          |   0.0 |  0.00
Other   |            | 1.134      |            |       |  3.61

Nlocal:         78.125 ave          96 max          63 min
Histogram: 3 8 6 13 4 8 16 1 3 2
Nghost:        1845.91 ave        1929 max        1803 min
Histogram: 6 14 11 11 9 6 3 2 1 1
Neighs:              0 ave           0 max           0 min
Histogram: 64 0 0 0 0 0 0 0 0 0
FullNghs:      24540.5 ave       30198 max       19599 min
Histogram: 2 8 7 10 6 9 12 5 3 2

Total # of neighbors = 1570594
Ave neighs/atom = 314.1188
Neighbor list builds = 1
Dangerous builds = 0
write_restart restart_mini
System init for write_restart ...
reset_timestep 0

variable la equal cella
variable lb equal cellb
variable lc equal cellc
variable alpha equal cellalpha
variable beta equal cellbeta
variable gamma equal cellgamma
# ------------------------- THERMALIZATION ----------------------------------------------
# output
dump 1 all custom ${d1} nep_1.lammpstrj id type element xs ys zs
dump 1 all custom 1000 nep_1.lammpstrj id type element xs ys zs
dump_modify 1 element Ti Zr Pb O
dump_modify 1 sort id
# step 1:800-600
variable a loop 4
label loop1_start
variable Ts equal $T-(v_a-1)*50
variable Ts equal 800-(v_a-1)*50
variable Te equal ${Ts}-50
variable Te equal 800-50
fix 2 all npt temp ${Ts} ${Ts} ${Tdamp} tri $p $p ${Pdamp}
fix 2 all npt temp 800 ${Ts} ${Tdamp} tri $p $p ${Pdamp}
fix 2 all npt temp 800 800 ${Tdamp} tri $p $p ${Pdamp}
fix 2 all npt temp 800 800 0.05 tri $p $p ${Pdamp}
fix 2 all npt temp 800 800 0.05 tri 1 $p ${Pdamp}
fix 2 all npt temp 800 800 0.05 tri 1 1 ${Pdamp}
fix 2 all npt temp 800 800 0.05 tri 1 1 0.5
run 100000
Per MPI rank memory allocation (min/avg/max) = 3.216 | 3.216 | 3.217 Mbytes
   Step          Temp          TotEng         PotEng         KinEng         Volume          Xlo            Xhi            Ylo            Yhi            Zlo            Zhi             Xy             Xz             Yz           Press           Pxx            Pyy            Pzz            Pyz            Pxz            Pxy      
         0   651.23083     -40126.993     -40547.8        420.80678      65450.827      0              40.3           0              40.3           0              40.3           0              0              0              24550.225      24657.954      24240.092      24752.628      3486.5678     -3210.1563     -3202.7837    
     10000   802.25711     -39491.3       -40009.696      518.39565      67663.214     -0.21052934     40.510529     -0.23316413     40.533164     -0.22989626     40.529896      0.11819487    -0.089559151    0.15681072     2864.3742      3607.5546      3663.8312      1321.7367     -2466.6362      1493.7962     -2380.2138    
     20000   816.05482     -39488.656     -40015.968      527.31134      67696.862     -0.23901909     40.539019     -0.22215332     40.522153     -0.22254482     40.522545     -0.071675892    0.10449728    -0.027325351    885.50737     -397.48147      1744.5717      1309.4318      275.47973     -1675.1858      1393.5347    
     30000   800.56263     -39485.172     -40002.472      517.30072      67891.347     -0.25452787     40.554528     -0.25218126     40.552181     -0.2354961      40.535496     -0.07152891    -0.11789779    -0.094466506   -2156.0602     -3855.5664     -2188.2573     -424.35674      1932.1497      1376.2318      1170.3111    
     40000   796.43953     -39494.066     -40008.702      514.6365       67821.446     -0.27723928     40.577239     -0.22912877     40.529129     -0.2148758      40.514876      0.071742867   -0.071993833    0.11837552    -2259.0685     -4181.1816     -1403.0193     -1193.0045     -1258.943       1000.0073     -1904.2032    
     50000   811.68324     -39491.555     -40016.041      524.48655      67907.258     -0.2704623      40.570462     -0.23344609     40.533446     -0.2430896      40.54309       0.016534226   -0.03188297     0.14007074    -2323.8156     -2985.314      -1963.852      -2022.2808     -2196.4033      12.360319     -652.0211     
     60000   804.00257     -39494.441     -40013.964      519.52352      67740.003     -0.22654835     40.526548     -0.25868564     40.558686     -0.21149071     40.511491      0.14400647     0.098153273   -0.020968532    1094.7399      472.97125      561.28776      2249.9606      353.81826     -901.09044     -1798.4254    
     70000   806.62151     -39483.577     -40004.793      521.2158       67686.526     -0.21424583     40.514246     -0.20393664     40.503937     -0.26246661     40.562467     -0.035465371   -0.015642976    0.12132503     3186.5725      3271.617       4848.4045      1439.6961     -2648.526      -484.49813      62.405579    
     80000   794.1077      -39501.406     -40014.536      513.12974      67837.432     -0.2242818      40.524282     -0.26787015     40.56787      -0.23387107     40.533871      0.013766268    0.0053890204  -0.040856606   -1749.5935      440.81074     -3813.97       -1875.6212      327.31109     -156.93044     -167.91286    
     90000   803.83151     -39502.224     -40021.637      519.41298      67721.236     -0.25174769     40.551748     -0.18521612     40.485216     -0.25416025     40.55416      -0.091245032    0.018716988   -0.07985057    -111.8282       81.764713      1949.63       -2366.8793      923.89519     -45.242545      2088.7803    
    100000   792.82085     -39481.377     -39993.675      512.29821      67869.243     -0.24277159     40.542772     -0.28595201     40.585952     -0.20691156     40.506912     -0.012756857   -0.02842407    -0.069856644   -1552.9645     -37.414335     -4234.9403     -386.5389       1148.9325      1287.2857      606.86253    
Loop time of 4707.6 on 64 procs for 100000 steps with 5000 atoms

Performance: 0.918 ns/day, 26.153 hours/ns, 21.242 timesteps/s, 106.211 katom-step/s
99.8% CPU use with 64 MPI tasks x 1 OpenMP threads

MPI task timing breakdown:
Section |  min time  |  avg time  |  max time  |%varavg| %total
---------------------------------------------------------------
Pair    | 3471.7     | 3858.5     | 4431.3     | 351.5 | 81.96
Neigh   | 0.8006     | 0.91667    | 1.1041     |   7.6 |  0.02
Comm    | 86.677     | 706.21     | 1146.6     | 937.2 | 15.00
Output  | 0.04183    | 0.092069   | 0.12789    |   7.3 |  0.00
Modify  | 25.295     | 140.87     | 264.07     | 572.5 |  2.99
Other   |            | 0.9846     |            |       |  0.02

Nlocal:         78.125 ave          94 max          69 min
Histogram: 6 9 14 6 12 9 3 1 3 1
Nghost:        1760.67 ave        1794 max        1724 min
Histogram: 3 5 5 9 7 9 8 4 8 6
Neighs:              0 ave           0 max           0 min
Histogram: 64 0 0 0 0 0 0 0 0 0
FullNghs:      23564.9 ave       28436 max       20642 min
Histogram: 6 12 10 9 10 9 3 1 3 1

Total # of neighbors = 1508152
Ave neighs/atom = 301.6304
Neighbor list builds = 1247
Dangerous builds = 0
write_restart relax_${Ts}
write_restart relax_800
System init for write_restart ...
unfix 2
# cool
fix 3 all npt temp ${Ts} ${Te} ${Tdamp} tri $p $p ${Pdamp}
fix 3 all npt temp 800 ${Te} ${Tdamp} tri $p $p ${Pdamp}
fix 3 all npt temp 800 750 ${Tdamp} tri $p $p ${Pdamp}
fix 3 all npt temp 800 750 0.05 tri $p $p ${Pdamp}
fix 3 all npt temp 800 750 0.05 tri 1 $p ${Pdamp}
fix 3 all npt temp 800 750 0.05 tri 1 1 ${Pdamp}
fix 3 all npt temp 800 750 0.05 tri 1 1 0.5
run 100000 #1K/ps
Per MPI rank memory allocation (min/avg/max) = 4.476 | 4.476 | 4.477 Mbytes
   Step          Temp          TotEng         PotEng         KinEng         Volume          Xlo            Xhi            Ylo            Yhi            Zlo            Zhi             Xy             Xz             Yz           Press           Pxx            Pyy            Pzz            Pyz            Pxz            Pxy      
    100000   792.82085     -39481.377     -39993.675      512.29821      67869.243     -0.24277159     40.542772     -0.28595201     40.585952     -0.20691156     40.506912     -0.012756857   -0.02842407    -0.069856644   -1552.9645     -37.414335     -4234.9403     -386.5389       1148.9325      1287.2857      606.86253    
    110000   803.36827     -39492.115     -40011.229      519.11365      67928.63      -0.2365735      40.536573     -0.28674328     40.586743     -0.23012958     40.53013      -0.019761783    0.12398388    -0.057786101   -3060.7321     -1115.0174     -5896.5849     -2170.594       635.1787      -1770.2175      848.22315    
    120000   784.96201     -39513.633     -40020.853      507.22005      67817.192     -0.19144927     40.491449     -0.26490383     40.564904     -0.26364647     40.563646     -0.045691622   -0.014309615   -0.013689098   -1634.4004     -491.42539     -1567.1802     -2844.5956     -322.3885       555.63515      837.43785    
    130000   800.66961     -39496.681     -40014.051      517.36985      67527.356     -0.18478024     40.48478      -0.24685692     40.546857     -0.20105952     40.50106       0.11838635    -0.0145125      0.086873025    4145.663       6108.8761      2122.3093      4205.8035     -1435.5385      134.04427     -2117.0042    
    140000   769.06719     -39515.092     -40012.042      496.94927      67705.656     -0.21063392     40.510634     -0.2736499      40.57365      -0.20215086     40.502151     -0.020446804    0.022658819   -0.080939113    1690.0186      2548.49       -1075.8412      3597.4069      1814.703       141.71131      273.79337    
    150000   780.09864     -39521.383     -40025.461      504.07748      67801.127     -0.26074285     40.560743     -0.24734613     40.547346     -0.20703154     40.507032     -0.030529758   -0.026291794   -0.043648653   -788.03063     -1567.8882     -1310.8435      514.6398       628.68971      628.89393      681.61646    
    160000   762.28023     -39540.824     -40033.388      492.56373      67773.229     -0.27093547     40.570935     -0.20058569     40.500586     -0.23523131     40.535231     -0.036104126   -0.089507813   -0.087146106   -609.80957     -3140.2842      211.14427      1099.7112      1286.2108      1381.4076      1029.727     
    170000   762.4017      -39537.835     -40030.478      492.64223      67688.6       -0.21965011     40.51965      -0.25398247     40.553982     -0.20762137     40.507621      0.011050332    0.0067181395  -0.030293411    1079.7623      2713.8973     -490.95596      1016.3456      338.12991      358.12156      149.84632    
    180000   762.07193     -39536.008     -40028.438      492.42914      67641.778     -0.26192911     40.561929     -0.21803326     40.518033     -0.18723366     40.487234     -0.060626575    0.072519128   -0.028281593    589.87005     -957.81373     -19.14035       2746.5642      597.35777     -478.18443      1313.324     
    190000   755.40284     -39543.804     -40031.924      488.11976      67649.924     -0.21810521     40.518105     -0.20186764     40.501868     -0.24963626     40.549636      0.021293391   -0.0047229173  -0.13284984     611.16052     -332.46854      3001.409      -835.45887      1914.9128     -557.25393     -715.65716    
    200000   767.96861     -39549.742     -40045.982      496.2394       67739.89      -0.20443653     40.504437     -0.23797097     40.537971     -0.25428642     40.554286     -0.020916878   -0.00027482239  0.073621967   -950.93089      663.59048     -2513.6498     -1002.7334     -1020.7807      298.14439      285.95513    
Loop time of 4721.29 on 64 procs for 100000 steps with 5000 atoms

Performance: 0.915 ns/day, 26.229 hours/ns, 21.181 timesteps/s, 105.903 katom-step/s
99.8% CPU use with 64 MPI tasks x 1 OpenMP threads

MPI task timing breakdown:
Section |  min time  |  avg time  |  max time  |%varavg| %total
---------------------------------------------------------------
Pair    | 3463.3     | 3860.6     | 4449.9     | 355.4 | 81.77
Neigh   | 0.78683    | 0.89653    | 1.0797     |   7.6 |  0.02
Comm    | 80.862     | 715.37     | 1177.2     | 951.3 | 15.15
Output  | 0.03879    | 0.083193   | 0.11508    |   6.8 |  0.00
Modify  | 25.119     | 143.32     | 274.76     | 598.7 |  3.04
Other   |            | 1.006      |            |       |  0.02

Nlocal:         78.125 ave          94 max          64 min
Histogram: 2 4 6 11 11 12 6 8 3 1
Nghost:        1758.78 ave        1796 max        1716 min
Histogram: 2 2 2 7 15 11 14 5 1 5
Neighs:              0 ave           0 max           0 min
Histogram: 64 0 0 0 0 0 0 0 0 0
FullNghs:        23626 ave       28389 max       19192 min
Histogram: 2 4 6 12 9 13 5 7 5 1

Total # of neighbors = 1512062
Ave neighs/atom = 302.4124
Neighbor list builds = 1219
Dangerous builds = 0
write_restart relax_${Ts}_${Te}
write_restart relax_800_${Te}
write_restart relax_800_750
System init for write_restart ...
unfix 3
next a
jump SELF loop1_start
variable Ts equal $T-(v_a-1)*50
variable Ts equal 800-(v_a-1)*50
variable Te equal ${Ts}-50
variable Te equal 750-50
fix 2 all npt temp ${Ts} ${Ts} ${Tdamp} tri $p $p ${Pdamp}
fix 2 all npt temp 750 ${Ts} ${Tdamp} tri $p $p ${Pdamp}
fix 2 all npt temp 750 750 ${Tdamp} tri $p $p ${Pdamp}
fix 2 all npt temp 750 750 0.05 tri $p $p ${Pdamp}
fix 2 all npt temp 750 750 0.05 tri 1 $p ${Pdamp}
fix 2 all npt temp 750 750 0.05 tri 1 1 ${Pdamp}
fix 2 all npt temp 750 750 0.05 tri 1 1 0.5
run 100000
Per MPI rank memory allocation (min/avg/max) = 4.476 | 4.476 | 4.477 Mbytes
   Step          Temp          TotEng         PotEng         KinEng         Volume          Xlo            Xhi            Ylo            Yhi            Zlo            Zhi             Xy             Xz             Yz           Press           Pxx            Pyy            Pzz            Pyz            Pxz            Pxy      
    200000   767.96861     -39549.742     -40045.982      496.2394       67739.89      -0.20443653     40.504437     -0.23797097     40.537971     -0.25428642     40.554286     -0.020916878   -0.00027482239  0.073621967   -950.93089      663.59048     -2513.6498     -1002.7334     -1020.7807      298.14439      285.95513    
    210000   742.1927      -39558.604     -40038.188      479.58375      67665.543     -0.2355288      40.535529     -0.21652665     40.516527     -0.22223306     40.522233      0.028711375   -0.0044789462   0.08384969     284.59727      142.86002      1208.8769     -497.94516     -154.35491     -66.068877     -1358.3333    
    220000   744.93578     -39556.811     -40038.168      481.35624      67640.024     -0.23809438     40.538094     -0.22807797     40.528078     -0.20044492     40.500445      0.041957984    0.16280794    -0.082301024   -155.71454     -1152.1651     -1014.1106      1699.1321      864.81887     -2373.7619     -812.9554     
    230000   749.31241     -39553.675     -40037.859      484.1843       67822.216     -0.22532917     40.525329     -0.2344029      40.534403     -0.26170864     40.561709      0.096095027   -0.0057655767  -0.070333342   -3560.3835     -2407.4379     -5437.4136     -2836.299       1346.7739      45.080595     -1792.3562    
    240000   744.46535     -39553.796     -40034.849      481.05227      67737.263     -0.21771755     40.517718     -0.25410477     40.554105     -0.22406789     40.524068     -0.011002772   -0.020593517   -0.078288588   -929.9891      -859.77074     -2313.9779      383.78138      621.52158      459.92581      419.70461    
    250000   749.31037     -39564.065     -40048.248      484.18298      67643.653     -0.22280552     40.522806     -0.20579463     40.505795     -0.23910526     40.539105      0.078038568    0.030675174    0.028799937   -876.86816     -406.01328     -1816.6372     -407.95402     -636.68767     -436.92077     -1216.3987    
    260000   763.70194     -39547.764     -40041.246      493.4824       67680.143     -0.21812611     40.518126     -0.22993975     40.52994      -0.23061604     40.530616      0.086835169    0.034141805   -0.022686718    905.02369      455.8871       2310.6476     -51.463632     -56.478934     -580.20811     -1833.1016    
    270000   759.37888     -39558.848     -40049.537      490.68896      67617.23      -0.24823268     40.548233     -0.22289264     40.522893     -0.18865138     40.488651      0.00033112261 -9.5751567e-05 -0.0032043863   846.58415     -995.47277      604.46106      2930.7642      367.94478     -241.0415       281.49784    
    280000   751.76553     -39550.267     -40036.037      485.76943      67791.788     -0.23303074     40.533031     -0.22850942     40.528509     -0.25074037     40.55074      -0.046015552    0.053709458    0.035526002   -1655.5631     -657.09304     -2758.8574     -1550.739      -1282.887      -505.06881      841.9789     
    290000   760.73923     -39546.314     -40037.882      491.56798      67642.228     -0.20350453     40.503505     -0.20808704     40.508087     -0.25571187     40.555712      0.062090676    0.038014295   -0.057281622    844.25897      2615.0173      870.13739     -952.37779      890.89468     -168.29428     -393.17351    
    300000   740.29305     -39563.378     -40041.734      478.35625      67735.806     -0.24530378     40.545304     -0.23219078     40.532191     -0.21794798     40.517948     -0.051139241   -0.047210089   -0.091413948   -259.38283     -1780.4766     -260.64812      1262.9763      1739.4545      1137.7025      443.9548     
Loop time of 4716.99 on 64 procs for 100000 steps with 5000 atoms

Performance: 0.916 ns/day, 26.205 hours/ns, 21.200 timesteps/s, 106.000 katom-step/s
99.8% CPU use with 64 MPI tasks x 1 OpenMP threads

MPI task timing breakdown:
Section |  min time  |  avg time  |  max time  |%varavg| %total
---------------------------------------------------------------
Pair    | 3469.1     | 3864.1     | 4453.9     | 355.2 | 81.92
Neigh   | 0.76579    | 0.87502    | 1.0574     |   7.5 |  0.02
Comm    | 83.428     | 710.99     | 1165.3     | 949.9 | 15.07
Output  | 0.037766   | 0.081107   | 0.11202    |   6.7 |  0.00
Modify  | 23.661     | 140        | 271.87     | 590.1 |  2.97
Other   |            | 0.9598     |            |       |  0.02

Nlocal:         78.125 ave          94 max          67 min
Histogram: 2 5 12 15 10 12 3 1 2 2
Nghost:        1768.33 ave        1810 max        1731 min
Histogram: 1 7 7 13 8 8 8 7 3 2
Neighs:              0 ave           0 max           0 min
Histogram: 64 0 0 0 0 0 0 0 0 0
FullNghs:      23625.1 ave       28579 max       20243 min
Histogram: 2 5 10 18 8 13 3 1 2 2

Total # of neighbors = 1512004
Ave neighs/atom = 302.4008
Neighbor list builds = 1190
Dangerous builds = 0
write_restart relax_${Ts}
write_restart relax_750
System init for write_restart ...
unfix 2
# cool
fix 3 all npt temp ${Ts} ${Te} ${Tdamp} tri $p $p ${Pdamp}
fix 3 all npt temp 750 ${Te} ${Tdamp} tri $p $p ${Pdamp}
fix 3 all npt temp 750 700 ${Tdamp} tri $p $p ${Pdamp}
fix 3 all npt temp 750 700 0.05 tri $p $p ${Pdamp}
fix 3 all npt temp 750 700 0.05 tri 1 $p ${Pdamp}
fix 3 all npt temp 750 700 0.05 tri 1 1 ${Pdamp}
fix 3 all npt temp 750 700 0.05 tri 1 1 0.5
run 100000 #1K/ps
Per MPI rank memory allocation (min/avg/max) = 4.476 | 4.476 | 4.477 Mbytes
   Step          Temp          TotEng         PotEng         KinEng         Volume          Xlo            Xhi            Ylo            Yhi            Zlo            Zhi             Xy             Xz             Yz           Press           Pxx            Pyy            Pzz            Pyz            Pxz            Pxy      
    300000   740.29305     -39563.378     -40041.734      478.35625      67735.806     -0.24530378     40.545304     -0.23219078     40.532191     -0.21794798     40.517948     -0.051139241   -0.047210089   -0.091413948   -259.38283     -1780.4766     -260.64812      1262.9763      1739.4545      1137.7025      443.9548     
    310000   747.96634     -39556.611     -40039.926      483.3145       67617.769     -0.20889842     40.508898     -0.19924879     40.499249     -0.25178634     40.551786      0.016393663    0.090948049    0.16931593    -300.60169      906.25245     -352.44208     -1455.6154     -3218.7984     -1760.0965     -315.68383    
    320000   751.67708     -39564.371     -40050.083      485.71228      67588.722     -0.19358055     40.493581     -0.20147418     40.501474     -0.25614565     40.556146     -0.029356936    0.081833079    0.093257134    2256.7581      6110.4166      801.80963     -141.95185     -1397.3512     -1465.9662      339.88819    
    330000   732.74408     -39571.169     -40044.647      473.47831      67655.24      -0.23653512     40.536535     -0.23540768     40.535408     -0.19926061     40.499261      0.074175577    0.013478769    0.023016561   -421.27983     -1045.4743     -2511.6833      2293.3181      298.04077      475.09237     -820.5624     
    340000   733.71293     -39580.365     -40054.469      474.10436      67647.452     -0.23052425     40.530524     -0.19618201     40.496182     -0.24215774     40.542158      0.02360517    -0.029405064   -0.032262923   -206.72383     -1307.0461      664.84467      22.029952      772.46287      1498.6745     -1096.6082    
    350000   744.56684     -39568.001     -40049.119      481.11785      67541.4       -0.22941286     40.529413     -0.19561244     40.495612     -0.21186899     40.511869      0.058100703    0.035003392   -0.022997772    1979.2176      1625.7739      3500.2598      811.61915      448.99227     -1192.5673     -744.91452    
    360000   708.88211     -39599.158     -40057.218      458.05939      67668.363     -0.23977423     40.539774     -0.20469199     40.504692     -0.23068275     40.530683      0.041211561    0.011898129   -0.0022566024   944.11041      237.81703      1942.9161      651.59814      882.58409     -559.24151     -577.38375    
    370000   719.72536     -39593.887     -40058.953      465.06599      67574.255     -0.2078608      40.507861     -0.23410995     40.53411      -0.20482562     40.504826      0.016727746   -0.055897199   -0.045045207   -148.79633     -283.12873     -998.6741       835.41383      25.160645      486.66176     -151.11897    
    380000   706.64265     -39611.355     -40067.967      456.61231      67811.064     -0.25537804     40.555378     -0.20104776     40.501048     -0.2616988      40.561699     -0.02697462     0.055602808   -0.062438877   -3427.8807     -3224.5687     -1506.8706     -5552.2028      1244.3297     -1230.9931      571.71686    
    390000   706.18066     -39599.443     -40055.757      456.31379      67602.207     -0.22822116     40.528221     -0.23568668     40.535687     -0.19132642     40.491326      0.078695295   -0.028699909   -0.029413214    1262.0609     -941.33967      1142.9328      3584.5895      313.66042      414.47633     -1603.6916    
    400000   699.94652     -39617.75      -40070.035      452.28547      67572.42      -0.20267406     40.502674     -0.20365719     40.503657     -0.23992137     40.539921     -0.024122363   -0.021614102   -0.013832138    675.13481      654.76577      861.6412       508.99746      321.63237      172.63279      619.04739    
Loop time of 4750.8 on 64 procs for 100000 steps with 5000 atoms

Performance: 0.909 ns/day, 26.393 hours/ns, 21.049 timesteps/s, 105.246 katom-step/s
99.8% CPU use with 64 MPI tasks x 1 OpenMP threads

MPI task timing breakdown:
Section |  min time  |  avg time  |  max time  |%varavg| %total
---------------------------------------------------------------
Pair    | 3469.9     | 3881.3     | 4477.8     | 361.1 | 81.70
Neigh   | 0.7474     | 0.85593    | 1.0348     |   7.4 |  0.02
Comm    | 81.808     | 720.13     | 1194       | 969.7 | 15.16
Output  | 0.038429   | 0.085803   | 0.14281    |   9.0 |  0.00
Modify  | 23.94      | 147.49     | 285.57     | 611.3 |  3.10
Other   |            | 0.972      |            |       |  0.02

Nlocal:         78.125 ave          92 max          63 min
Histogram: 1 0 3 16 11 10 13 5 3 2
Nghost:        1770.31 ave        1814 max        1723 min
Histogram: 1 6 5 3 17 7 10 11 1 3
Neighs:              0 ave           0 max           0 min
Histogram: 64 0 0 0 0 0 0 0 0 0
FullNghs:      23647.5 ave       27726 max       18985 min
Histogram: 1 0 4 16 9 10 9 9 3 3

Total # of neighbors = 1513442
Ave neighs/atom = 302.6884
Neighbor list builds = 1160
Dangerous builds = 0
write_restart relax_${Ts}_${Te}
write_restart relax_750_${Te}
write_restart relax_750_700
System init for write_restart ...
unfix 3
next a
jump SELF loop1_start
variable Ts equal $T-(v_a-1)*50
variable Ts equal 800-(v_a-1)*50
variable Te equal ${Ts}-50
variable Te equal 700-50
fix 2 all npt temp ${Ts} ${Ts} ${Tdamp} tri $p $p ${Pdamp}
fix 2 all npt temp 700 ${Ts} ${Tdamp} tri $p $p ${Pdamp}
fix 2 all npt temp 700 700 ${Tdamp} tri $p $p ${Pdamp}
fix 2 all npt temp 700 700 0.05 tri $p $p ${Pdamp}
fix 2 all npt temp 700 700 0.05 tri 1 $p ${Pdamp}
fix 2 all npt temp 700 700 0.05 tri 1 1 ${Pdamp}
fix 2 all npt temp 700 700 0.05 tri 1 1 0.5
run 100000
Per MPI rank memory allocation (min/avg/max) = 4.476 | 4.476 | 4.477 Mbytes
   Step          Temp          TotEng         PotEng         KinEng         Volume          Xlo            Xhi            Ylo            Yhi            Zlo            Zhi             Xy             Xz             Yz           Press           Pxx            Pyy            Pzz            Pyz            Pxz            Pxy      
    400000   699.94652     -39617.75      -40070.035      452.28547      67572.42      -0.20267406     40.502674     -0.20365719     40.503657     -0.23992137     40.539921     -0.024122363   -0.021614102   -0.013832138    675.13481      654.76577      861.6412       508.99746      321.63237      172.63279      619.04739    
    410000   693.1737      -39622.009     -40069.918      447.90906      67702.14      -0.23081824     40.530818     -0.25109825     40.551098     -0.20341293     40.503413      0.047353446   -0.048077448   -0.012121267   -3117.4002     -4643.727      -3779.1289     -929.34491      683.13649      319.22643     -832.68491    
    420000   717.64044     -39605.495     -40069.214      463.71877      67540.422     -0.20214457     40.502145     -0.19515379     40.495154     -0.23931462     40.539315     -0.014037569   -0.025656243    0.045483598    686.40973      2051.6716      594.94597     -587.38832     -1161.2132      1157.8887      422.98624    
    430000   719.27101     -39608.481     -40073.254      464.7724       67562.792     -0.24942929     40.549429     -0.22174448     40.521744     -0.1722302      40.47223      -0.058449413   -0.01185784     0.069716261    87.49579      -2630.2034     -174.74691      3067.4377     -1563.6506     -370.78593      347.56871    
    440000   695.35349     -39621.634     -40070.951      449.31758      67676.103     -0.25653928     40.556539     -0.18499381     40.484994     -0.23599681     40.535997     -0.0046369807  -0.026631658   -0.011870924   -2111.4329     -2076.8111     -1496.2333     -2761.2543     -509.02764      584.54134      373.88629    
    450000   696.18518     -39623.486     -40073.341      449.855        67533.027     -0.22570709     40.525707     -0.21805961     40.51806      -0.19060594     40.490606      0.044655459    0.039002763   -0.021615636    1773.9697      1730.2245      1715.8405      1875.8442      210.29728     -876.75675     -1082.581     
    460000   713.91403     -39607.315     -40068.626      461.31088      67590.613     -0.23136457     40.531365     -0.20270388     40.502704     -0.21765489     40.517655      0.034616492    0.00055478784  0.0046413463  -1115.8897     -1034.3007     -1706.6887     -606.67977     -360.14302     -522.1745      -523.15187    
    470000   693.59123     -39620.022     -40068.2        448.17886      67597.419     -0.27172327     40.571723     -0.15324626     40.453246     -0.22897116     40.528971     -0.055991652   -0.047510057    0.097471249    258.29889     -2904.2948      3538.5703      140.62116     -2304.2316      871.26133      1596.8464    
    480000   705.31196     -39617.553     -40073.305      455.75246      67553.934     -0.25533493     40.555335     -0.17692951     40.47693      -0.20847061     40.508471      0.034903614    0.010869262   -0.0088143581   1739.7595     -1021.1534      4726.6006      1513.8312     -496.9758      -795.55758     -205.82136    
    490000   686.75565     -39624.601     -40068.363      443.76191      67613.079     -0.23216177     40.532162     -0.23468603     40.534686     -0.19166299     40.491663     -0.058430515    0.022337068   -0.063896106   -286.18694      335.95762     -2342.2781      1147.7597      1072.0092     -1052.1397      1318.5397    
    500000   692.70773     -39619.703     -40067.311      447.60797      67602.974     -0.24326251     40.543263     -0.20313791     40.503138     -0.20906049     40.50906      -0.02332374     0.044809205   -0.071787441    6.3361056     -1184.8675     -1437.0969      2640.9727      1273.5726     -857.08972      1099.1274    
Loop time of 5212.42 on 64 procs for 100000 steps with 5000 atoms

Performance: 0.829 ns/day, 28.958 hours/ns, 19.185 timesteps/s, 95.925 katom-step/s
99.8% CPU use with 64 MPI tasks x 1 OpenMP threads

MPI task timing breakdown:
Section |  min time  |  avg time  |  max time  |%varavg| %total
---------------------------------------------------------------
Pair    | 3789.3     | 4230.2     | 4880.6     | 380.1 | 81.16
Neigh   | 0.80005    | 0.91277    | 1.11       |   7.6 |  0.02
Comm    | 100.85     | 805.58     | 1311.5     | 994.9 | 15.45
Output  | 0.048341   | 0.097378   | 0.13266    |   6.9 |  0.00
Modify  | 52.415     | 174.37     | 315.63     | 553.7 |  3.35
Other   |            | 1.23       |            |       |  0.02

Nlocal:         78.125 ave          91 max          68 min
Histogram: 5 3 11 13 3 15 6 1 2 5
Nghost:         1770.2 ave        1816 max        1728 min
Histogram: 4 4 2 17 8 10 5 9 2 3
Neighs:              0 ave           0 max           0 min
Histogram: 64 0 0 0 0 0 0 0 0 0
FullNghs:      23643.7 ave       27719 max       20472 min
Histogram: 5 4 13 7 9 12 6 1 2 5

Total # of neighbors = 1513198
Ave neighs/atom = 302.6396
Neighbor list builds = 1137
Dangerous builds = 0
write_restart relax_${Ts}
write_restart relax_700
System init for write_restart ...
unfix 2
# cool
fix 3 all npt temp ${Ts} ${Te} ${Tdamp} tri $p $p ${Pdamp}
fix 3 all npt temp 700 ${Te} ${Tdamp} tri $p $p ${Pdamp}
fix 3 all npt temp 700 650 ${Tdamp} tri $p $p ${Pdamp}
fix 3 all npt temp 700 650 0.05 tri $p $p ${Pdamp}
fix 3 all npt temp 700 650 0.05 tri 1 $p ${Pdamp}
fix 3 all npt temp 700 650 0.05 tri 1 1 ${Pdamp}
fix 3 all npt temp 700 650 0.05 tri 1 1 0.5
run 100000 #1K/ps
Per MPI rank memory allocation (min/avg/max) = 4.476 | 4.476 | 4.477 Mbytes
   Step          Temp          TotEng         PotEng         KinEng         Volume          Xlo            Xhi            Ylo            Yhi            Zlo            Zhi             Xy             Xz             Yz           Press           Pxx            Pyy            Pzz            Pyz            Pxz            Pxy      
    500000   692.70773     -39619.703     -40067.311      447.60797      67602.974     -0.24326251     40.543263     -0.20313791     40.503138     -0.20906049     40.50906      -0.02332374     0.044809205   -0.071787441    6.3361056     -1184.8675     -1437.0969      2640.9727      1273.5726     -857.08972      1099.1274    
    510000   688.77675     -39633.677     -40078.745      445.06788      67597.26      -0.24085086     40.540851     -0.19079091     40.490791     -0.22210584     40.522106     -0.010799131    0.018164419    0.011396447   -1285.4636     -2482.5394      101.05457     -1474.906      -95.465308     -519.73179      201.91554    
    520000   697.30187     -39618.196     -40068.773      450.57657      67620.228     -0.19985956     40.49986      -0.17402586     40.474026     -0.28692201     40.586922     -0.034134344    0.010597196    0.1157361     -371.08854      298.50381      2872.3875     -4284.1569     -2331.6481      276.57131      300.87768    
    530000   678.88993     -39642.331     -40081.011      438.6793       67442.106     -0.17757228     40.477572     -0.19464001     40.49464      -0.23476039     40.53476      -0.11457167    -0.010867761   -0.04397614     1717.9858      3897.1779      2142.307      -885.52757      864.049        24.874677      1993.2877    
    540000   668.00379     -39655.664     -40087.309      431.64499      67451.62      -0.19005543     40.490055     -0.20735944     40.507359     -0.21239318     40.512393      0.090321091   -0.025440708    0.016305985    1786.2396      2605.5765      59.811531      2693.3308     -724.35562     -408.19663     -828.42405    
    550000   682.02112     -39643.725     -40084.428      440.70259      67508.57      -0.21324639     40.513246     -0.19688602     40.496886     -0.21685426     40.516854      0.043647774    0.037082981    0.018055606   -50.867223     -107.05832     -817.14762      771.60427     -413.11921     -566.77385     -641.56259    
    560000   669.06519     -39661.474     -40093.805      432.33083      67360.394     -0.21400596     40.514006     -0.17876219     40.478762     -0.18950971     40.48951       0.072628449   -0.033436153    0.036211297    1193.7986      43.627236      1763.6355      1774.133      -1102.312       728.43696     -1092.7623    
    570000   664.57849     -39664.544     -40093.975      429.43166      67467.957     -0.17993459     40.479935     -0.21292739     40.512927     -0.22189263     40.521893      0.031185457    0.044981646    0.0050843456  -1660.9204      1035.4221     -3252.0985     -2766.085      -325.65538     -104.08429     -1050.0435    
    580000   668.38392     -39660.814     -40092.704      431.89062      67475.613     -0.19553127     40.495531     -0.19794638     40.497946     -0.22357462     40.523575      0.041760394    0.0006781428   0.039133335    86.636107     -364.48149      1896.102      -1271.7122     -193.00679     -206.1708      -302.18946    
    590000   647.98805     -39670.937     -40089.649      418.71139      67578.203     -0.21085484     40.510855     -0.18937313     40.489373     -0.2477883      40.547788      0.0076477529   0.0063576085   0.086037408   -1773.4189     -2093.8896     -367.34835     -2859.0188     -1379.9905      96.150233      240.65801    
    600000   654.04422     -39683.458     -40106.083      422.62471      67531.49      -0.23874928     40.538749     -0.20535211     40.505352     -0.18982159     40.489822      0.0020667353   0.076060067    0.004298018   -885.33212     -2266.633      -881.03241      491.66908     -95.702656     -791.15435     -143.08668    
Loop time of 4823.61 on 64 procs for 100000 steps with 5000 atoms

Performance: 0.896 ns/day, 26.798 hours/ns, 20.731 timesteps/s, 103.657 katom-step/s
99.8% CPU use with 64 MPI tasks x 1 OpenMP threads

MPI task timing breakdown:
Section |  min time  |  avg time  |  max time  |%varavg| %total
---------------------------------------------------------------
Pair    | 3564.9     | 3965.2     | 4551.7     | 367.8 | 82.20
Neigh   | 0.73394    | 0.83408    | 1.0155     |   7.3 |  0.02
Comm    | 77.983     | 725.23     | 1183       | 982.4 | 15.04
Output  | 0.038498   | 0.083513   | 0.11579    |   6.9 |  0.00
Modify  | 25.222     | 131.2      | 281.6      | 555.0 |  2.72
Other   |            | 1.021      |            |       |  0.02

Nlocal:         78.125 ave          96 max          69 min
Histogram: 7 10 14 9 14 4 2 2 1 1
Nghost:        1769.14 ave        1802 max        1729 min
Histogram: 2 2 3 9 10 11 9 10 5 3
Neighs:              0 ave           0 max           0 min
Histogram: 64 0 0 0 0 0 0 0 0 0
FullNghs:      23666.8 ave       29050 max       20626 min
Histogram: 6 8 13 12 14 5 0 3 2 1

Total # of neighbors = 1514678
Ave neighs/atom = 302.9356
Neighbor list builds = 1103
Dangerous builds = 0
write_restart relax_${Ts}_${Te}
write_restart relax_700_${Te}
write_restart relax_700_650
System init for write_restart ...
unfix 3
next a
jump SELF loop1_start
variable Ts equal $T-(v_a-1)*50
variable Ts equal 800-(v_a-1)*50
variable Te equal ${Ts}-50
variable Te equal 650-50
fix 2 all npt temp ${Ts} ${Ts} ${Tdamp} tri $p $p ${Pdamp}
fix 2 all npt temp 650 ${Ts} ${Tdamp} tri $p $p ${Pdamp}
fix 2 all npt temp 650 650 ${Tdamp} tri $p $p ${Pdamp}
fix 2 all npt temp 650 650 0.05 tri $p $p ${Pdamp}
fix 2 all npt temp 650 650 0.05 tri 1 $p ${Pdamp}
fix 2 all npt temp 650 650 0.05 tri 1 1 ${Pdamp}
fix 2 all npt temp 650 650 0.05 tri 1 1 0.5
run 100000
Per MPI rank memory allocation (min/avg/max) = 4.476 | 4.476 | 4.477 Mbytes
   Step          Temp          TotEng         PotEng         KinEng         Volume          Xlo            Xhi            Ylo            Yhi            Zlo            Zhi             Xy             Xz             Yz           Press           Pxx            Pyy            Pzz            Pyz            Pxz            Pxy      
    600000   654.04422     -39683.458     -40106.083      422.62471      67531.49      -0.23874928     40.538749     -0.20535211     40.505352     -0.18982159     40.489822      0.0020667353   0.076060067    0.004298018   -885.33212     -2266.633      -881.03241      491.66908     -95.702656     -791.15435     -143.08668    
    610000   649.55911     -39664.435     -40084.161      419.72656      67529.162     -0.20021663     40.500217     -0.21168443     40.511684     -0.22129487     40.521295     -0.014444004   -0.0049188796   0.059376942    696.48857      873.34034      481.70301      734.42234     -746.85262     -489.97763      466.68862    
    620000   655.62535     -39688.231     -40111.877      423.64639      67320.381     -0.19306997     40.49307      -0.1996477      40.499648     -0.1774636      40.477464      0.099083737    0.059765401   -0.034697008    2232.8183      2506.2369      1738.9932      2453.2248      679.957       -877.80736     -1974.3668    
    630000   645.47494     -39679.897     -40096.984      417.08749      67549.613     -0.2243959      40.524396     -0.18800578     40.488006     -0.22697759     40.526978      0.089695164   -0.03294615     0.010759289   -903.1477      -409.69464     -212.87195     -2086.8765      227.63964      972.93977     -1863.2142    
    640000   650.70676     -39675.871     -40096.339      420.46814      67385.792     -0.19760565     40.497606     -0.19834011     40.49834      -0.19398605     40.493986     -0.04691971    -0.058770738   -0.087781705    1034.7998      1247.3281     -593.14725      2450.2186      1476.6148      1891.5765      332.51716    
    650000   644.98563     -39681.988     -40098.759      416.77131      67383.933     -0.19752225     40.497522     -0.19140506     40.491405     -0.20044408     40.500444      0.014184754   -0.045064103    0.014756469    3297.8285      3313.9795      2789.0591      3790.447      -930.36335      145.96844     -632.42723    
    660000   658.68592     -39675.751     -40101.375      425.62405      67527.414     -0.22950248     40.529502     -0.19773497     40.497735     -0.20543953     40.50544       0.027517119   -0.027105775   -0.039408005   -1017.5913     -1076.1705     -428.77267     -1547.8309      473.88328     -263.52639     -331.40183    
    670000   663.21156     -39679.245     -40107.794      428.54838      67404.2       -0.19253437     40.492534     -0.19261275     40.492613     -0.21034727     40.510347     -0.045382699   -0.049378067   -0.049681955   -1074.116      -1266.6455     -499.07246     -1456.6302      1143.3273      389.44739      413.13233    
    680000   632.1364      -39698.543     -40107.011      408.46851      67424.343     -0.18133536     40.481335     -0.22663334     40.526633     -0.1936279      40.493628      0.094827946   -0.10789019    -0.034428801   -254.76557      2206.2235     -3918.0146      947.49437      882.80795      2522.4366     -1795.6848    
    690000   639.80565     -39685.469     -40098.893      413.42416      67452.178     -0.17396593     40.473966     -0.224508       40.524508     -0.21152959     40.51153      -0.03324422    -0.071569177    0.074359233    241.31623      2215.8102     -1833.1736      341.31201     -1086.1155      1284.2235      578.18847    
    700000   651.13733     -39682.491     -40103.238      420.74636      67594.839     -0.19535144     40.495351     -0.21155122     40.511551     -0.24611692     40.546117      0.040072215   -0.057641436   -0.052257034   -2290.097      -738.65805     -3338.6604     -2792.9725      356.91226      623.7761      -1646.1585    
Loop time of 4954.31 on 64 procs for 100000 steps with 5000 atoms

Performance: 0.872 ns/day, 27.524 hours/ns, 20.184 timesteps/s, 100.922 katom-step/s
99.8% CPU use with 64 MPI tasks x 1 OpenMP threads

MPI task timing breakdown:
Section |  min time  |  avg time  |  max time  |%varavg| %total
---------------------------------------------------------------
Pair    | 3679.5     | 4076.1     | 4668.7     | 380.5 | 82.27
Neigh   | 0.73624    | 0.83203    | 1.0178     |   7.4 |  0.02
Comm    | 57.818     | 749.29     | 1215       |1012.7 | 15.12
Output  | 0.03834    | 0.082841   | 0.11515    |   6.9 |  0.00
Modify  | 14.784     | 126.99     | 309.72     | 547.1 |  2.56
Other   |            | 1.021      |            |       |  0.02

Nlocal:         78.125 ave          93 max          64 min
Histogram: 1 1 6 14 13 13 8 4 2 2
Nghost:        1768.59 ave        1819 max        1730 min
Histogram: 2 8 10 10 11 8 9 3 1 2
Neighs:              0 ave           0 max           0 min
Histogram: 64 0 0 0 0 0 0 0 0 0
FullNghs:      23659.8 ave       28295 max       19176 min
Histogram: 1 2 5 15 11 13 7 6 2 2

Total # of neighbors = 1514224
Ave neighs/atom = 302.8448
Neighbor list builds = 1076
Dangerous builds = 0
write_restart relax_${Ts}
write_restart relax_650
System init for write_restart ...
unfix 2
# cool
fix 3 all npt temp ${Ts} ${Te} ${Tdamp} tri $p $p ${Pdamp}
fix 3 all npt temp 650 ${Te} ${Tdamp} tri $p $p ${Pdamp}
fix 3 all npt temp 650 600 ${Tdamp} tri $p $p ${Pdamp}
fix 3 all npt temp 650 600 0.05 tri $p $p ${Pdamp}
fix 3 all npt temp 650 600 0.05 tri 1 $p ${Pdamp}
fix 3 all npt temp 650 600 0.05 tri 1 1 ${Pdamp}
fix 3 all npt temp 650 600 0.05 tri 1 1 0.5
run 100000 #1K/ps
Per MPI rank memory allocation (min/avg/max) = 4.476 | 4.476 | 4.477 Mbytes
   Step          Temp          TotEng         PotEng         KinEng         Volume          Xlo            Xhi            Ylo            Yhi            Zlo            Zhi             Xy             Xz             Yz           Press           Pxx            Pyy            Pzz            Pyz            Pxz            Pxy      
    700000   651.13733     -39682.491     -40103.238      420.74636      67594.839     -0.19535144     40.495351     -0.21155122     40.511551     -0.24611692     40.546117      0.040072215   -0.057641436   -0.052257034   -2290.097      -738.65805     -3338.6604     -2792.9725      356.91226      623.7761      -1646.1585    
    710000   644.73197     -39691.749     -40108.357      416.6074       67388.41      -0.18892862     40.488929     -0.22309216     40.523092     -0.17872766     40.478728      0.058484002    0.0054374738   0.01746083     1178.9025      3138.7966     -657.37743      1055.2884     -50.911611      78.21205      -779.81085    
    720000   634.66718     -39688.928     -40099.032      410.10382      67471.734     -0.20315056     40.503151     -0.19008532     40.490085     -0.22264728     40.522647     -0.0019892295  -0.049122839    0.033733949   -662.55563      1417.634      -1452.2666     -1953.0343     -1261.9836      884.26869      484.05288    
    730000   635.12161     -39692.366     -40102.764      410.39746      67519.404     -0.24761795     40.547618     -0.17435883     40.474359     -0.20833725     40.508337      0.051958345    0.17211532     0.0032589513  -2585.5741     -3985.1302     -1401.4986     -2370.0934     -154.2416      -2784.4057     -356.58249    
    740000   633.74614     -39710.744     -40120.252      409.50867      67484.652     -0.21542915     40.515429     -0.21570583     40.515706     -0.18864379     40.488644      0.064185775    0.080631972    0.024337799   -2195.2016     -3135.9513     -1143.8493     -2305.8041     -585.39203     -1460.9743     -949.72169    
    750000   625.37652     -39707.917     -40112.018      404.10046      67489.414     -0.19698134     40.496981     -0.20352597     40.503526     -0.22070345     40.520703      0.021176481    0.014140991    0.067215942   -2234.7484     -2482.6503     -1532.2191     -2689.3759     -1034.7863      348.03963      45.474839    
    760000   623.1838      -39721.686     -40124.37       402.68359      67372.885     -0.21028114     40.510281     -0.19408823     40.494088     -0.18167486     40.481675     -0.038474358   -0.0070479342  -0.10936763     1753.4313      2373.9349      1057.6229      1828.7362      2002.3968     -379.29288      976.63301    
    770000   613.34528     -39731.14      -40127.467      396.32622      67312.55      -0.2117643      40.511764     -0.16632462     40.466325     -0.1897451      40.489745      0.10022105     0.084136404    0.0020691951   1359.5756     -1388.8626      3135.9148      2331.6745      310.37998     -816.3629      -1702.4521    
    780000   622.05773     -39726.508     -40128.464      401.95596      67282.453     -0.18077772     40.480778     -0.18936816     40.489368     -0.18856841     40.488568      0.066366003    0.026337025    0.025007159    1318.6236      1393.5824      1109.8001      1452.4884     -494.52354     -397.23009     -1173.866     
    790000   602.11073     -39729.625     -40118.692      389.06677      67546.179     -0.21072696     40.510727     -0.19546976     40.49547      -0.23214088     40.532141     -0.01320565     0.051147572   -0.0022345482  -2250.0166     -1465.2341     -2495.7691     -2789.0467      953.17137     -1565.1358     -11.808722    
    800000   592.47518     -39744.9       -40127.74       382.84055      67369.283     -0.19137267     40.491373     -0.17262139     40.472621     -0.22098141     40.520981     -0.015732109    0.085661573   -0.022582074   -784.0027      -892.78745     -132.17103     -1327.0496      669.04182     -1924.3568      86.236168    
Loop time of 4668.32 on 64 procs for 100000 steps with 5000 atoms

Performance: 0.925 ns/day, 25.935 hours/ns, 21.421 timesteps/s, 107.105 katom-step/s
99.9% CPU use with 64 MPI tasks x 1 OpenMP threads

MPI task timing breakdown:
Section |  min time  |  avg time  |  max time  |%varavg| %total
---------------------------------------------------------------
Pair    | 3476.1     | 3864.5     | 4437.1     | 368.8 | 82.78
Neigh   | 0.67568    | 0.76589    | 0.93029    |   7.3 |  0.02
Comm    | 54.844     | 693.03     | 1135.7     | 987.5 | 14.85
Output  | 0.037205   | 0.081638   | 0.11298    |   6.8 |  0.00
Modify  | 12.028     | 108.95     | 245.35     | 556.9 |  2.33
Other   |            | 0.9554     |            |       |  0.02

Nlocal:         78.125 ave          96 max          70 min
Histogram: 14 13 8 8 8 3 6 2 0 2
Nghost:        1779.55 ave        1822 max        1741 min
Histogram: 5 1 11 11 9 9 4 4 5 5
Neighs:              0 ave           0 max           0 min
Histogram: 64 0 0 0 0 0 0 0 0 0
FullNghs:      23708.7 ave       29168 max       21082 min
Histogram: 14 8 13 8 8 3 4 4 0 2

Total # of neighbors = 1517358
Ave neighs/atom = 303.4716
Neighbor list builds = 1045
Dangerous builds = 0
write_restart relax_${Ts}_${Te}
write_restart relax_650_${Te}
write_restart relax_650_600
System init for write_restart ...
unfix 3
next a
jump SELF loop1_start
undump 1

# output
dump 2 all custom ${d1} nep_2.lammpstrj id type element xs ys zs
dump 2 all custom 1000 nep_2.lammpstrj id type element xs ys zs
dump_modify 2 element Ti Zr Pb O
dump_modify 2 sort id
# step 2:600-300
variable b loop 15
label loop2_start
variable Ts equal 600-(v_b-1)*20
variable Te equal ${Ts}-20
variable Te equal 600-20
fix 4 all npt temp ${Ts} ${Ts} ${Tdamp} tri $p $p ${Pdamp}
fix 4 all npt temp 600 ${Ts} ${Tdamp} tri $p $p ${Pdamp}
fix 4 all npt temp 600 600 ${Tdamp} tri $p $p ${Pdamp}
fix 4 all npt temp 600 600 0.05 tri $p $p ${Pdamp}
fix 4 all npt temp 600 600 0.05 tri 1 $p ${Pdamp}
fix 4 all npt temp 600 600 0.05 tri 1 1 ${Pdamp}
fix 4 all npt temp 600 600 0.05 tri 1 1 0.5
run 200000 # 100ps
Per MPI rank memory allocation (min/avg/max) = 3.216 | 3.216 | 3.217 Mbytes
   Step          Temp          TotEng         PotEng         KinEng         Volume          Xlo            Xhi            Ylo            Yhi            Zlo            Zhi             Xy             Xz             Yz           Press           Pxx            Pyy            Pzz            Pyz            Pxz            Pxy      
    800000   592.47518     -39744.9       -40127.74       382.84055      67369.283     -0.19137267     40.491373     -0.17262139     40.472621     -0.22098141     40.520981     -0.015732109    0.085661573   -0.022582074   -784.0027      -892.78745     -132.17103     -1327.0496      669.04182     -1924.3568      86.236168    
    810000   594.80832     -39744.134     -40128.482      384.34816      67414.865     -0.22078669     40.520787     -0.18118135     40.481181     -0.19676032     40.49676       0.0084749228  -0.066125155   -0.040338088   -2871.9546     -3824.3264     -1268.0555     -3523.4818      932.82191      694.45657      313.25454    
    820000   597.57976     -39744.019     -40130.158      386.13899      67452.667     -0.1950882      40.495088     -0.21054786     40.510548     -0.20448412     40.504484      0.03074461     0.11201747     0.017567278   -2152.0576     -571.57601     -2023.8947     -3860.702      -518.81002     -1575.2425     -47.679236    
    830000   592.24215     -39742.087     -40124.777      382.68998      67316.746     -0.20697249     40.506972     -0.17246017     40.47246      -0.1896586      40.489659     -0.063605027   -0.023917242    0.0025687032   2000.0605      3013.557       856.52436      2130.1001     -67.915167      930.72563      1257.037     
    840000   602.19865     -39748.585     -40137.709      389.12358      67394.209     -0.2025528      40.502553     -0.18791262     40.487913     -0.20201078     40.502011      0.062182331   -0.10280754    -0.085466599   -376.18865     -353.91713      655.3836      -1430.0324      1507.9276      1843.638      -970.21508    
    850000   597.47805     -39750.675     -40136.748      386.07327      67402.79      -0.20919332     40.509193     -0.2183824      40.518382     -0.1675239      40.467524     -0.0088227423  -0.055158502    0.035732034   -1189.2194     -335.87022     -3848.9144      617.12628     -674.05619      564.81856     -338.73513    
    860000   591.88515     -39747.403     -40129.862      382.4593       67373.548     -0.19352734     40.493527     -0.21861088     40.518611     -0.17412057     40.474121      0.0065363432  -0.076560365   -0.011013273    1249.9482      1875.7026     -1176.6447      3050.7866      572.7615       1141.6152     -782.19684    
    870000   597.14279     -39738.465     -40124.321      385.85663      67361.348     -0.16671665     40.466717     -0.21854609     40.518546     -0.1973206      40.497321     -0.0081615025  -0.082513267    0.070555874    1227.2618      2841.4364     -1020.3915      1860.7403     -1422.5733      1218.7623      175.48347    
    880000   593.21438     -39750.655     -40133.974      383.31821      67367.458     -0.18927718     40.489277     -0.18049876     40.480499     -0.21463482     40.514635     -0.037142299   -0.061365857   -0.0022125601   601.78422     -847.86356      3405.373      -752.15676      10.437172      76.031294      274.38443    
    890000   599.92213     -39742.926     -40130.579      387.65256      67375.817     -0.16843477     40.468435     -0.20990657     40.509907     -0.20860559     40.508606     -0.074182709    0.037183938    0.060566308   -579.56126      389.72227     -2418.5724      290.16634     -1109.3498     -568.99371      1020.4012    
    900000   601.07802     -39741.927     -40130.327      388.39947      67303.377     -0.18967071     40.489671     -0.18441977     40.48442      -0.190947       40.490947      0.085860735   -0.076663711    0.019340716    1100.1801      426.53736      1699.2927      1174.7102      368.71526      1730.2163     -1602.775     
    910000   598.76161     -39744.364     -40131.266      386.90266      67491.96      -0.21132174     40.511322     -0.20881302     40.508813     -0.20183783     40.501838      0.0026332901   0.022073602    0.0041846264  -2425.3005     -2082.7547     -2276.315      -2916.8318      87.597144     -659.27482      11.128468    
    920000   597.21139     -39746.821     -40132.722      385.90096      67322.883     -0.17524057     40.475241     -0.21763738     40.517637     -0.17808038     40.47808      -0.045694555   -0.017192346    0.069505505    1452.7244      769.90691     -1047.3146      4635.5808     -469.96994      199.24835      670.84348    
    930000   597.72827     -39744.668     -40130.903      386.23495      67301.417     -0.18420978     40.48421      -0.20188834     40.501888     -0.17835373     40.478354      0.011003224    0.055500867   -0.03701334     1754.9456      2206.3485      673.00828      2385.48        688.42789     -840.50664     -122.05661    
    940000   606.36024     -39740.788     -40132.601      391.81269      67334.787     -0.17596255     40.475963     -0.18333747     40.483337     -0.21524849     40.515248      0.065439445   -0.018732044   -0.041861068    839.04913      1998.3474      800.42031     -281.62035      125.34638      64.934365     -1125.3121    
    950000   591.47193     -39757.384     -40139.576      382.19228      67390.393     -0.21287911     40.512879     -0.19530511     40.495305     -0.18314763     40.483148      0.054779608   -0.025068081    0.041535187   -540.80953     -1267.0768     -578.15578      222.80401     -1090.711       139.93734     -787.47668    
    960000   598.40637     -39744.041     -40130.715      386.67312      67399.034     -0.19081058     40.490811     -0.19673809     40.496738     -0.20638392     40.506384     -0.00035906393  0.022823988    0.0022278556   763.00585      367.90872      1131.2738      789.83505      230.38295     -225.88428      175.42366    
    970000   597.92367     -39744.861     -40131.222      386.36121      67327.059     -0.2022443      40.502244     -0.19679259     40.496793     -0.17316725     40.473167      0.059697242   -0.097126054   -0.085638656    871.36499      1038.4073      348.79018      1226.8974      741.91019      2097.3918     -986.86011    
    980000   590.62458     -39749.433     -40131.077      381.64475      67324.896     -0.20524841     40.505248     -0.19173343     40.491733     -0.17456881     40.474569      0.10484228     0.03644856     0.0708223      2996.6881      1873.5952      2490.957       4625.512      -1423.8353     -719.4332      -1677.3598    
    990000   598.98495     -39743.081     -40130.128      387.04698      67412.809     -0.20597726     40.505977     -0.21671323     40.516713     -0.17542011     40.47542      -0.05764454    -0.039964987   -0.063385131   -1422.9817     -1120.1924     -1874.2257     -1274.527       658.76577      810.46496      786.02333    
   1000000   604.77075     -39742.734     -40133.52       390.7856       67408.352     -0.19500319     40.495003     -0.17414126     40.474141     -0.22763396     40.527634     -0.0071396143  -0.010733712    0.08640129    -1270.7342     -292.77506     -73.634673     -3445.7927     -1175.6346      382.61425     -432.19518    
Loop time of 9174.05 on 64 procs for 200000 steps with 5000 atoms

Performance: 0.942 ns/day, 25.483 hours/ns, 21.801 timesteps/s, 109.003 katom-step/s
99.9% CPU use with 64 MPI tasks x 1 OpenMP threads

MPI task timing breakdown:
Section |  min time  |  avg time  |  max time  |%varavg| %total
---------------------------------------------------------------
Pair    | 6854.7     | 7596.9     | 8741.2     | 521.1 | 82.81
Neigh   | 1.3001     | 1.4773     | 1.7965     |   9.9 |  0.02
Comm    | 103.27     | 1362.8     | 2208.1     |1397.8 | 14.86
Output  | 0.072952   | 0.16152    | 0.22362    |   9.6 |  0.00
Modify  | 23.285     | 210.88     | 507.29     | 805.2 |  2.30
Other   |            | 1.855      |            |       |  0.02

Nlocal:         78.125 ave          89 max          66 min
Histogram: 3 3 6 9 7 11 9 6 8 2
Nghost:        1773.09 ave        1821 max        1740 min
Histogram: 3 11 9 10 8 9 8 4 1 1
Neighs:              0 ave           0 max           0 min
Histogram: 64 0 0 0 0 0 0 0 0 0
FullNghs:      23709.8 ave       27027 max       19949 min
Histogram: 3 3 7 6 9 11 9 6 8 2

Total # of neighbors = 1517424
Ave neighs/atom = 303.4848
Neighbor list builds = 2055
Dangerous builds = 0
write_restart relax_${Ts}
write_restart relax_600
System init for write_restart ...
unfix 4
# cool
fix 5 all npt temp ${Ts} ${Te} ${Tdamp} tri $p $p ${Pdamp}
fix 5 all npt temp 600 ${Te} ${Tdamp} tri $p $p ${Pdamp}
fix 5 all npt temp 600 580 ${Tdamp} tri $p $p ${Pdamp}
fix 5 all npt temp 600 580 0.05 tri $p $p ${Pdamp}
fix 5 all npt temp 600 580 0.05 tri 1 $p ${Pdamp}
fix 5 all npt temp 600 580 0.05 tri 1 1 ${Pdamp}
fix 5 all npt temp 600 580 0.05 tri 1 1 0.5
run 40000 # 1K/ps
Per MPI rank memory allocation (min/avg/max) = 4.476 | 4.476 | 4.477 Mbytes
   Step          Temp          TotEng         PotEng         KinEng         Volume          Xlo            Xhi            Ylo            Yhi            Zlo            Zhi             Xy             Xz             Yz           Press           Pxx            Pyy            Pzz            Pyz            Pxz            Pxy      
   1000000   604.77075     -39742.734     -40133.52       390.7856       67408.352     -0.19500319     40.495003     -0.17414126     40.474141     -0.22763396     40.527634     -0.0071396143  -0.010733712    0.08640129    -1270.7342     -292.77506     -73.634673     -3445.7927     -1175.6346      382.61425     -432.19518    
   1010000   592.85792     -39751.629     -40134.717      383.08787      67450.025     -0.19987954     40.49988      -0.22059143     40.520591     -0.18886185     40.488862      0.072672413   -0.044186194    0.039115105   -1712.5246     -1793.0993     -2603.5078     -740.96681     -447.56911      1230.3933     -1382.486     
   1020000   586.83258     -39758.537     -40137.731      379.19447      67346.953     -0.19552771     40.495528     -0.19567633     40.495676     -0.18699921     40.486999      0.017173206   -0.010863848   -0.045598479    930.89584      389.13504      103.41444      2300.138       1551.7742      800.52928     -429.56207    
   1030000   586.18509     -39765.69      -40144.466      378.77608      67281.05      -0.17267375     40.472674     -0.19775795     40.497758     -0.18786533     40.487865      0.0088205142  -0.051614473    0.022515707    1023.4961      2239.3599      602.56742      228.56094     -373.51465      542.33813     -302.10575    
   1040000   579.00861     -39766.374     -40140.513      374.13884      67327.06      -0.18741606     40.487416     -0.20584513     40.505845     -0.17894069     40.478941     -0.019473871   -0.067117359   -0.068523089    796.79665      846.83023      166.51041      1377.0493      245.78816      943.14033      84.784757    
Loop time of 1831.52 on 64 procs for 40000 steps with 5000 atoms

Performance: 0.943 ns/day, 25.438 hours/ns, 21.840 timesteps/s, 109.199 katom-step/s
99.9% CPU use with 64 MPI tasks x 1 OpenMP threads

MPI task timing breakdown:
Section |  min time  |  avg time  |  max time  |%varavg| %total
---------------------------------------------------------------
Pair    | 1383.9     | 1520       | 1747.2     | 230.6 | 82.99
Neigh   | 0.25612    | 0.28995    | 0.35241    |   4.4 |  0.02
Comm    | 21.273     | 268.58     | 425.33     | 628.2 | 14.66
Output  | 0.014561   | 0.032119   | 0.044439   |   4.2 |  0.00
Modify  | 3.8063     | 42.21      | 105.99     | 373.2 |  2.30
Other   |            | 0.3719     |            |       |  0.02

Nlocal:         78.125 ave          95 max          67 min
Histogram: 3 6 12 14 7 14 4 2 1 1
Nghost:        1776.45 ave        1816 max        1720 min
Histogram: 1 4 0 6 8 13 14 7 8 3
Neighs:              0 ave           0 max           0 min
Histogram: 64 0 0 0 0 0 0 0 0 0
FullNghs:      23704.8 ave       28901 max       20098 min
Histogram: 3 5 12 10 13 13 3 2 2 1

Total # of neighbors = 1517104
Ave neighs/atom = 303.4208
Neighbor list builds = 403
Dangerous builds = 0
write_restart relax_${Ts}_${Te}
write_restart relax_600_${Te}
write_restart relax_600_580
System init for write_restart ...
unfix 5
next b
jump SELF loop2_start
variable Ts equal 600-(v_b-1)*20
variable Te equal ${Ts}-20
variable Te equal 580-20
fix 4 all npt temp ${Ts} ${Ts} ${Tdamp} tri $p $p ${Pdamp}
fix 4 all npt temp 580 ${Ts} ${Tdamp} tri $p $p ${Pdamp}
fix 4 all npt temp 580 580 ${Tdamp} tri $p $p ${Pdamp}
fix 4 all npt temp 580 580 0.05 tri $p $p ${Pdamp}
fix 4 all npt temp 580 580 0.05 tri 1 $p ${Pdamp}
fix 4 all npt temp 580 580 0.05 tri 1 1 ${Pdamp}
fix 4 all npt temp 580 580 0.05 tri 1 1 0.5
run 200000 # 100ps
Per MPI rank memory allocation (min/avg/max) = 4.476 | 4.476 | 4.477 Mbytes
   Step          Temp          TotEng         PotEng         KinEng         Volume          Xlo            Xhi            Ylo            Yhi            Zlo            Zhi             Xy             Xz             Yz           Press           Pxx            Pyy            Pzz            Pyz            Pxz            Pxy      
   1040000   579.00861     -39766.374     -40140.513      374.13884      67327.06      -0.18741606     40.487416     -0.20584513     40.505845     -0.17894069     40.478941     -0.019473871   -0.067117359   -0.068523089    796.79665      846.83023      166.51041      1377.0493      245.78816      943.14033      84.784757    
   1050000   583.43008     -39764.68      -40141.676      376.99587      67248.686     -0.16098278     40.460983     -0.19157171     40.491572     -0.19596856     40.495969     -0.0071647172   0.015570958   -0.018889543    1824.3887      2916.0283      1932.785       624.35284     -472.39455     -65.068324     -478.68919    
   1060000   587.43837     -39765.962     -40145.548      379.58591      67334.226     -0.22515875     40.525159     -0.16358048     40.46358      -0.18566616     40.485666     -0.048567016   -0.051792694    0.00039394524  72.230253     -2264.4266      710.19354      1770.9238     -587.975        1153.712       895.92638    
   1070000   589.08405     -39766.977     -40147.626      380.6493       67333.942     -0.17728064     40.477281     -0.21759762     40.517598     -0.17941883     40.479419      0.061753198   -0.080688395   -0.08929236     1246.2211      2433.2421     -519.94633      1825.3676      1520.9251      1040.0343     -1789.5853    
   1080000   566.59221     -39777.345     -40143.46       366.11572      67512.48      -0.2101374      40.510137     -0.23138584     40.531386     -0.18666141     40.486661      0.0090272769   0.12937919     0.0039391114  -3720.9046     -2861.298      -5262.9278     -3038.4881      221.11848     -2328.4534      319.37063    
   1090000   569.09958     -39774.694     -40142.43       367.73591      67427.137     -0.23649654     40.536497     -0.19580436     40.495804     -0.17016679     40.470167      0.019643255   -0.10164736     0.042141812   -1815.9848     -3182.8724     -2282.57        17.488099     -1409.452       1616.4093     -831.84992    
   1100000   572.40691     -39772.499     -40142.372      369.87301      67327.669     -0.1742183      40.474218     -0.16555589     40.465556     -0.23266813     40.532668      0.013845567   -0.016325341   -0.00024864407  1363.8496      1572.4094      3931.0943     -1411.9548     -713.30095      9.0117384     -863.91019    
   1110000   584.20388     -39768.494     -40145.99       377.49588      67344.34      -0.18710301     40.487103     -0.18202104     40.482021     -0.20829823     40.508298     -0.07625141    -0.020005008    0.012465934    99.130233      2182.1213     -195.58849     -1689.1421     -545.06048      436.78187      2236.8542    
   1120000   582.63124     -39771.146     -40147.626      376.47968      67411.785     -0.21004173     40.510042     -0.18110245     40.481102     -0.206647       40.506647      0.0203222     -0.03289927     0.0089718183  -882.80988     -1032.5754      202.80767     -1818.6619      162.57405      1393.278      -173.18592    
   1130000   576.06605     -39771.042     -40143.28       372.23744      67353.502     -0.21483131     40.514831     -0.18246448     40.482464     -0.18290148     40.482901      0.069214258    0.015100557    0.031358553   -939.061       -2280.1488      77.489516     -614.52378     -957.13463     -175.11128     -1499.4676    
   1140000   590.36852     -39756.164     -40137.643      381.47929      67315.255     -0.23968078     40.539681     -0.16256873     40.462569     -0.1664691      40.466469      0.0048960301   0.050831727    0.046535002    1210.4821      898.90392      830.97345      1901.569      -398.77479     -160.74779     -303.81769    
   1150000   573.51715     -39768.828     -40139.418      370.59042      67374.188     -0.18987715     40.489877     -0.2161532      40.516153     -0.18041415     40.480414     -0.038869674    0.025266961    0.019688689    97.753502      952.31164     -640.28952     -18.761609     -813.71615     -1005.5134      353.6871     
   1160000   583.93954     -39766.36      -40143.685      377.32507      67449.661     -0.19127953     40.49128      -0.17498353     40.474984     -0.24300912     40.543009     -0.077330472   -0.01283692    -0.031466986   -1268.3543     -611.31463      28.531314     -3222.2796      849.4321       623.64892      775.17976    
   1170000   584.43402     -39760.583     -40138.227      377.64459      67476.22      -0.23553135     40.535531     -0.1868226      40.486823     -0.19490287     40.494903     -0.0056006365   0.068721215    0.0020667268  -2578.997      -3164.206      -2294.8019     -2277.983       100.92989     -1086.6801      8.3569863    
   1180000   585.20433     -39767.012     -40145.155      378.14234      67308.873     -0.16276959     40.46277      -0.20325404     40.503254     -0.20069931     40.500699      0.039191637   -0.054115323    0.015377289    311.41583      396.0994      -1080.9561      1619.1042     -52.023222     -59.821513     -419.01581    
   1190000   565.98638     -39773.144     -40138.868      365.72425      67437.992     -0.2161703      40.51617      -0.20104129     40.501041     -0.18848666     40.488487      0.055033914   -0.074963467    0.061470129   -1039.0719     -2104.7796     -72.604694     -939.83129     -1181.0077      850.53249     -49.856954    
   1200000   580.95597     -39776.486     -40151.883      375.39717      67336.199     -0.18400639     40.484006     -0.21098485     40.510985     -0.17997638     40.479976      0.042234109    0.10924555    -0.04144737    -207.70035      686.22188     -2362.3734      1053.0505      941.64148     -1207.7638     -1071.6246    
   1210000   568.00526     -39773.99      -40141.018      367.02879      67284.398     -0.18644428     40.486444     -0.19100719     40.491007     -0.18185072     40.481851      0.010327233    0.13044652     0.045208268    1411.6845      185.61091      2243.0774      1806.3652     -585.00899     -2059.4148     -719.76898    
   1220000   576.04351     -39772.581     -40144.804      372.22288      67267.471     -0.17476677     40.474767     -0.18539145     40.485391     -0.1940308      40.494031      0.018397468   -0.0073914589  -0.006014329    1675.3952      2308.3194      1507.1964      1210.6697     -213.07275      826.98595     -466.90793    
   1230000   579.74406     -39766.928     -40141.542      374.61407      67357.046     -0.18999296     40.489993     -0.18107526     40.481075     -0.21019332     40.510193      0.040970029   -0.1071348     -0.030477689    626.29678      1350.9741      1121.4093     -593.49307      334.7487       2075.4526      196.45476    
   1240000   579.05103     -39768.651     -40142.817      374.16625      67334.704     -0.21794651     40.517947     -0.17931884     40.479319     -0.17726261     40.477263     -0.10320195    -0.028759949   -0.022940441   -125.65485     -1820.4882      989.34755      454.17615      403.45557      351.2623       1113.3867    
Loop time of 9170.63 on 64 procs for 200000 steps with 5000 atoms

Performance: 0.942 ns/day, 25.474 hours/ns, 21.809 timesteps/s, 109.044 katom-step/s
99.9% CPU use with 64 MPI tasks x 1 OpenMP threads

MPI task timing breakdown:
Section |  min time  |  avg time  |  max time  |%varavg| %total
---------------------------------------------------------------
Pair    | 6845.3     | 7601.3     | 8750.5     | 522.2 | 82.89
Neigh   | 1.2423     | 1.4202     | 1.7257     |   9.7 |  0.02
Comm    | 100.33     | 1359.8     | 2214.5     |1400.3 | 14.83
Output  | 0.072473   | 0.16028    | 0.22199    |   9.5 |  0.00
Modify  | 20.513     | 206.03     | 501.61     | 809.3 |  2.25
Other   |            | 1.86       |            |       |  0.02

Nlocal:         78.125 ave          95 max          67 min
Histogram: 3 8 9 13 11 12 5 1 1 1
Nghost:        1772.89 ave        1810 max        1723 min
Histogram: 1 0 6 3 10 13 11 13 6 1
Neighs:              0 ave           0 max           0 min
Histogram: 64 0 0 0 0 0 0 0 0 0
FullNghs:      23706.3 ave       28900 max       20218 min
Histogram: 4 7 8 12 15 9 5 2 1 1

Total # of neighbors = 1517206
Ave neighs/atom = 303.4412
Neighbor list builds = 1978
Dangerous builds = 0
write_restart relax_${Ts}
write_restart relax_580
System init for write_restart ...
unfix 4
# cool
fix 5 all npt temp ${Ts} ${Te} ${Tdamp} tri $p $p ${Pdamp}
fix 5 all npt temp 580 ${Te} ${Tdamp} tri $p $p ${Pdamp}
fix 5 all npt temp 580 560 ${Tdamp} tri $p $p ${Pdamp}
fix 5 all npt temp 580 560 0.05 tri $p $p ${Pdamp}
fix 5 all npt temp 580 560 0.05 tri 1 $p ${Pdamp}
fix 5 all npt temp 580 560 0.05 tri 1 1 ${Pdamp}
fix 5 all npt temp 580 560 0.05 tri 1 1 0.5
run 40000 # 1K/ps
Per MPI rank memory allocation (min/avg/max) = 4.476 | 4.476 | 4.477 Mbytes
   Step          Temp          TotEng         PotEng         KinEng         Volume          Xlo            Xhi            Ylo            Yhi            Zlo            Zhi             Xy             Xz             Yz           Press           Pxx            Pyy            Pzz            Pyz            Pxz            Pxy      
   1240000   579.05103     -39768.651     -40142.817      374.16625      67334.704     -0.21794651     40.517947     -0.17931884     40.479319     -0.17726261     40.477263     -0.10320195    -0.028759949   -0.022940441   -125.65485     -1820.4882      989.34755      454.17615      403.45557      351.2623       1113.3867    
   1250000   576.94297     -39772.778     -40145.582      372.80408      67382.108     -0.24485236     40.544852     -0.17339174     40.473392     -0.17066202     40.470662      0.030055194   -0.0080043341   0.063788599   -571.13708     -2856.158      -89.016691      1231.7635     -671.756        512.43213     -652.95926    
   1260000   569.58921     -39785.473     -40153.525      368.0523       67326.037     -0.19126669     40.491267     -0.18023994     40.48024      -0.20038203     40.500382     -0.057126157    0.035706558   -0.0052160166  -923.52496      644.74353     -1718.4722     -1696.8462      73.38028      -325.77832      745.60444    
   1270000   567.23475     -39791.106     -40157.637      366.53091      67291.817     -0.17895784     40.478958     -0.2049935      40.504994     -0.17760371     40.477604      0.036617962    0.096647018    0.038375942    720.41636      1637.4837     -124.43491      648.20029     -540.61931     -1009.4085     -1087.7897    
[...]
   5170000   114.47916     -40405.815     -40479.788      73.973164      66834.131     -0.1338807      40.433881     -0.13237857     40.432379     -0.1566548      40.456655      0.25848781     0.30784339     0.32220919    -255.60524     -747.0358      -447.19512      427.4152      -107.73489     -81.861204      430.96676    
   5180000   111.27854     -40412.619     -40484.524      71.905014      66829.562     -0.13091482     40.430915     -0.11805766     40.418058     -0.17258529     40.472585      0.32209126     0.33062291     0.32548486    -300.54653     -838.32263     -318.94397      255.62701     -347.20121     -380.25279     -902.5999     
   5190000   103.28345     -40420.586     -40487.325      66.73882       66836.393     -0.15679013     40.45679      -0.093629595    40.39363      -0.17325923     40.473259      0.26102062     0.32756793     0.31488153    -827.52147     -1655.3056     -800.34352     -26.91531      -439.16279      80.967174      619.95098    
   5200000   101.42565     -40424.742     -40490.281      65.53836       66812.513     -0.1677286      40.467729     -0.093364926    40.393365     -0.15532581     40.455326      0.31985004     0.31377408     0.27127866    -595.64021     -791.34652     -837.28415     -158.28996      223.89279     -21.172519     -231.92684    
Loop time of 5404.09 on 64 procs for 100000 steps with 5000 atoms

Performance: 0.799 ns/day, 30.023 hours/ns, 18.504 timesteps/s, 92.522 katom-step/s
99.8% CPU use with 64 MPI tasks x 1 OpenMP threads

MPI task timing breakdown:
Section |  min time  |  avg time  |  max time  |%varavg| %total
---------------------------------------------------------------
Pair    | 3131.9     | 4262.3     | 5271.8     | 762.4 | 78.87
Neigh   | 0          | 0          | 0          |   0.0 |  0.00
Comm    | 46.529     | 1037.4     | 2199.8     |1624.6 | 19.20
Output  | 0.04139    | 0.11047    | 0.14944    |   7.6 |  0.00
Modify  | 31.499     | 102.81     | 475.8      | 613.2 |  1.90
Other   |            | 1.457      |            |       |  0.03

Nlocal:         78.125 ave          96 max          58 min
Histogram: 3 3 3 9 8 11 11 9 2 5
Nghost:        1837.05 ave        1949 max        1728 min
Histogram: 6 2 4 13 7 9 9 6 3 5
Neighs:              0 ave           0 max           0 min
Histogram: 64 0 0 0 0 0 0 0 0 0
FullNghs:      23990.6 ave       29728 max       17704 min
Histogram: 3 4 2 9 13 8 9 10 1 5

Total # of neighbors = 1535400
Ave neighs/atom = 307.08
Neighbor list builds = 0
Dangerous builds = 0
write_restart relax_${Ts}_${Te}
write_restart relax_150_${Te}
write_restart relax_150_100
System init for write_restart ...
unfix 7
next c
jump SELF loop3_start
variable Ts equal 300-(v_c-1)*50
variable Te equal ${Ts}-50
variable Te equal 100-50
fix 6 all npt temp ${Ts} ${Ts} ${Tdamp} tri $p $p ${Pdamp}
fix 6 all npt temp 100 ${Ts} ${Tdamp} tri $p $p ${Pdamp}
fix 6 all npt temp 100 100 ${Tdamp} tri $p $p ${Pdamp}
fix 6 all npt temp 100 100 0.05 tri $p $p ${Pdamp}
fix 6 all npt temp 100 100 0.05 tri 1 $p ${Pdamp}
fix 6 all npt temp 100 100 0.05 tri 1 1 ${Pdamp}
fix 6 all npt temp 100 100 0.05 tri 1 1 0.5
run 100000
Per MPI rank memory allocation (min/avg/max) = 4.476 | 4.477 | 4.477 Mbytes
   Step          Temp          TotEng         PotEng         KinEng         Volume          Xlo            Xhi            Ylo            Yhi            Zlo            Zhi             Xy             Xz             Yz           Press           Pxx            Pyy            Pzz            Pyz            Pxz            Pxy      
   5200000   101.42565     -40424.742     -40490.281      65.53836       66812.513     -0.1677286      40.467729     -0.093364926    40.393365     -0.15532581     40.455326      0.31985004     0.31377408     0.27127866    -595.64021     -791.34652     -837.28415     -158.28996      223.89279     -21.172519     -231.92684    
   5210000   97.570454     -40427.963     -40491.01       63.047243      66792.284     -0.14365867     40.443659     -0.10045678     40.400457     -0.16613702     40.466137      0.31092358     0.32704684     0.29580735    -295.02064     -407.48493     -679.34989      201.77292      117.05537     -217.62332     -146.09591    
   5220000   98.681545     -40425.617     -40489.382      63.765199      66841.524     -0.14587373     40.445874     -0.10959865     40.409599     -0.16972209     40.469722      0.32540724     0.31055984     0.33747342    -966.03066     -777.16145     -722.14884     -1398.7817     -373.98273      244.40567     -451.65243    
   5230000   99.657115     -40425.997     -40490.393      64.395584      66803.926     -0.14395684     40.443957     -0.099547908    40.399548     -0.17029148     40.470291      0.23445507     0.3391654      0.31012487    -200.3612      -526.55267     -1034.8449      960.31395      134.74903     -325.75365      1073.9819    
   5240000   98.595183     -40426.174     -40489.883      63.709394      66803.26      -0.15000818     40.450008     -0.096789837    40.39679      -0.16679892     40.466799      0.29191678     0.31448257     0.29861337    -7.6700321     -212.99681     -444.24082      634.22753     -362.28583      244.19334      172.9752     
   5250000   100.95269     -40426.088     -40491.32       65.232747      66779.618     -0.11845411     40.418454     -0.1037444      40.403744     -0.18424223     40.484242      0.28748946     0.33177339     0.28041132     763.80881      501.5498       334.87991      1454.9967      632.17253     -74.011914      175.13405    
   5260000   100.95404     -40425.581     -40490.815      65.233623      66838.153     -0.14524753     40.445248     -0.11955256     40.419553     -0.159346       40.459346      0.31710606     0.31068899     0.31500987    -822.29688     -525.79134     -1627.3639     -313.73539     -234.8216       11.133991     -53.268486    
   5270000   101.6604      -40425.076     -40490.766      65.690048      66836.829     -0.1260051      40.426005     -0.11255528     40.412555     -0.18523732     40.485237      0.32080522     0.301804       0.31740949    -877.12737     -1187.5869     -460.43806     -983.35711     -142.75581      345.8918      -513.14974    
   5280000   97.766797     -40426.958     -40490.132      63.174115      66777.045     -0.13054286     40.430543     -0.096964333    40.396964     -0.17814349     40.478143      0.28774374     0.33837498     0.28546196     339.4543      -170.86238      520.47888      668.74639      71.396339     -311.68491      278.79875    
   5290000   99.822236     -40425.9       -40490.402      64.502281      66794.898     -0.165035       40.465035     -0.079704103    40.379704     -0.1663739      40.466374      0.28212284     0.33101259     0.28591662     225.94223     -39.582394      607.01135      110.39774      417.00674     -19.697133      251.1612     
   5300000   98.610886     -40427.033     -40490.752      63.719541      66787.867     -0.1331621      40.433162     -0.089122712    40.389123     -0.1866887      40.486689      0.28451456     0.2974916      0.27943558     133.85281     -426.60534      1102.2205     -274.05671      548.73229      510.56789     -62.997421    
Loop time of 5384.1 on 64 procs for 100000 steps with 5000 atoms

Performance: 0.802 ns/day, 29.912 hours/ns, 18.573 timesteps/s, 92.866 katom-step/s
99.8% CPU use with 64 MPI tasks x 1 OpenMP threads

MPI task timing breakdown:
Section |  min time  |  avg time  |  max time  |%varavg| %total
---------------------------------------------------------------
Pair    | 3307.5     | 4351.5     | 5272.3     | 761.9 | 80.82
Neigh   | 0          | 0          | 0          |   0.0 |  0.00
Comm    | 45.883     | 955.82     | 2021.5     |1676.6 | 17.75
Output  | 0.038774   | 0.099527   | 0.13425    |   7.0 |  0.00
Modify  | 33.739     | 75.51      | 302.55     | 548.7 |  1.40
Other   |            | 1.201      |            |       |  0.02

Nlocal:         78.125 ave          94 max          60 min
Histogram: 5 2 3 6 12 15 3 6 5 7
Nghost:        1838.73 ave        1953 max        1712 min
Histogram: 2 6 1 11 11 3 16 6 2 6
Neighs:              0 ave           0 max           0 min
Histogram: 64 0 0 0 0 0 0 0 0 0
FullNghs:        24061 ave       29260 max       18341 min
Histogram: 5 2 3 9 11 12 6 4 7 5

Total # of neighbors = 1539902
Ave neighs/atom = 307.9804
Neighbor list builds = 0
Dangerous builds = 0
write_restart relax_${Ts}
write_restart relax_100
System init for write_restart ...
unfix 6
# cool
fix 7 all npt temp ${Ts} ${Te} ${Tdamp} tri $p $p ${Pdamp}
fix 7 all npt temp 100 ${Te} ${Tdamp} tri $p $p ${Pdamp}
fix 7 all npt temp 100 50 ${Tdamp} tri $p $p ${Pdamp}
fix 7 all npt temp 100 50 0.05 tri $p $p ${Pdamp}
fix 7 all npt temp 100 50 0.05 tri 1 $p ${Pdamp}
fix 7 all npt temp 100 50 0.05 tri 1 1 ${Pdamp}
fix 7 all npt temp 100 50 0.05 tri 1 1 0.5
run 100000 #1K/ps
Per MPI rank memory allocation (min/avg/max) = 4.476 | 4.477 | 4.477 Mbytes
   Step          Temp          TotEng         PotEng         KinEng         Volume          Xlo            Xhi            Ylo            Yhi            Zlo            Zhi             Xy             Xz             Yz           Press           Pxx            Pyy            Pzz            Pyz            Pxz            Pxy      
   5300000   98.610886     -40427.033     -40490.752      63.719541      66787.867     -0.1331621      40.433162     -0.089122712    40.389123     -0.1866887      40.486689      0.28451456     0.2974916      0.27943558     133.85281     -426.60534      1102.2205     -274.05671      548.73229      510.56789     -62.997421    
   5310000   92.595709     -40434.175     -40494.007      59.832705      66739.203     -0.12699739     40.426997     -0.099120758    40.399121     -0.16801217     40.468012      0.30105765     0.30620627     0.29211338     780.79127      611.79562      1070.925       659.65322      340.20707      51.143184     -148.01471    
   5320000   89.186362     -40439.208     -40496.838      57.629682      66748.206     -0.1446687      40.444669     -0.080676861    40.380677     -0.17156868     40.471569      0.28700572     0.33877422     0.34420212     917.85495     -96.428006      1455.1677      1394.8251     -1057.9597      5.3981903      102.58583    
   5330000   84.717225     -40445.407     -40500.149      54.741853      66746.054     -0.1477652      40.447765     -0.085205084    40.385205     -0.16326674     40.463267      0.33009037     0.34388412     0.28912952     512.30974     -217.0835       715.81102      1038.2017      72.204778     -229.12619     -654.24858    
   5340000   80.502194     -40451.084     -40503.103      52.018221      66803.669     -0.15193179     40.451932     -0.11255206     40.412552     -0.14919525     40.449195      0.32968425     0.3413137      0.34465765    -392.98807     -469.13966     -538.70018     -171.12436     -489.03625     -265.70543     -291.8503     
   5350000   76.364046     -40457.756     -40507.1        49.344267      66689.386     -0.13114068     40.431141     -0.094569521    40.39457      -0.15326162     40.453262      0.34450627     0.34214312     0.29762398     1504.5851      1675.4172      1829.9974      1008.3408      160.98175     -397.68331     -630.84212    
   5360000   70.292968     -40464.894     -40510.315      45.42131       66769.724     -0.13448876     40.434489     -0.1010787      40.401079     -0.16783219     40.467832      0.28985427     0.29789814     0.31262106    -659.30952     -1238.39       -116.78308     -622.7555       161.35625      571.00156      86.191077    
   5370000   66.527215     -40470.503     -40513.491      42.987988      66696.525     -0.13085267     40.430853     -0.11235689     40.412357     -0.13789794     40.437898      0.3214125      0.32200898     0.31129006    -16.533766     -91.973838     -447.67192      490.04446     -98.26634      -199.78969     -213.95616    
   5380000   59.855123     -40478.197     -40516.873      38.676673      66760.582     -0.13105749     40.431057     -0.11689426     40.416894     -0.15263142     40.452631      0.29421825     0.33644115     0.29406207    -602.58404     -262.24364     -975.99317     -569.5153       711.82606     -396.83477      254.50029    
   5390000   54.32269      -40484.985     -40520.086      35.101772      66753.827     -0.12186893     40.421869     -0.10219953     40.4022       -0.17451515     40.474515      0.31985175     0.33670539     0.29015214    -428.03832     -104.81296     -136.62754     -1042.6744      601.83354     -162.40757     -103.02373    
   5400000   48.852416     -40492.698     -40524.265      31.567037      66751.075     -0.12814839     40.428148     -0.093566935    40.393567     -0.17604773     40.476048      0.32001723     0.34188073     0.30963041    -456.19023      174.90943     -478.48005     -1065.0001      283.38712      3.2716998     -315.39018    
Loop time of 5956.53 on 64 procs for 100000 steps with 5000 atoms

Performance: 0.725 ns/day, 33.092 hours/ns, 16.788 timesteps/s, 83.941 katom-step/s
99.7% CPU use with 64 MPI tasks x 1 OpenMP threads

MPI task timing breakdown:
Section |  min time  |  avg time  |  max time  |%varavg| %total
---------------------------------------------------------------
Pair    | 3427.2     | 4570.4     | 5801       | 795.4 | 76.73
Neigh   | 0          | 0          | 0          |   0.0 |  0.00
Comm    | 44.898     | 1100.9     | 2452.6     |1877.2 | 18.48
Output  | 0.038281   | 0.085766   | 0.12178    |   7.2 |  0.00
Modify  | 56.941     | 283.83     | 675.53     |1097.2 |  4.76
Other   |            | 1.317      |            |       |  0.02

Nlocal:         78.125 ave          99 max          59 min
Histogram: 6 2 4 8 11 11 11 6 4 1
Nghost:        1840.27 ave        1958 max        1731 min
Histogram: 8 0 5 16 3 10 10 4 5 3
Neighs:              0 ave           0 max           0 min
Histogram: 64 0 0 0 0 0 0 0 0 0
FullNghs:      24073.8 ave       30503 max       18140 min
Histogram: 7 1 4 11 8 12 10 6 4 1

Total # of neighbors = 1540724
Ave neighs/atom = 308.1448
Neighbor list builds = 0
Dangerous builds = 0
write_restart relax_${Ts}_${Te}
write_restart relax_100_${Te}
write_restart relax_100_50
System init for write_restart ...
unfix 7
next c
jump SELF loop3_start

fix 8 all npt temp ${Te} ${Te} ${Tdamp} tri $p $p ${Pdamp}
fix 8 all npt temp 50 ${Te} ${Tdamp} tri $p $p ${Pdamp}
fix 8 all npt temp 50 50 ${Tdamp} tri $p $p ${Pdamp}
fix 8 all npt temp 50 50 0.05 tri $p $p ${Pdamp}
fix 8 all npt temp 50 50 0.05 tri 1 $p ${Pdamp}
fix 8 all npt temp 50 50 0.05 tri 1 1 ${Pdamp}
fix 8 all npt temp 50 50 0.05 tri 1 1 0.5
run 100000
Per MPI rank memory allocation (min/avg/max) = 4.476 | 4.477 | 4.477 Mbytes
   Step          Temp          TotEng         PotEng         KinEng         Volume          Xlo            Xhi            Ylo            Yhi            Zlo            Zhi             Xy             Xz             Yz           Press           Pxx            Pyy            Pzz            Pyz            Pxz            Pxy      
   5400000   48.852416     -40492.698     -40524.265      31.567037      66751.075     -0.12814839     40.428148     -0.093566935    40.393567     -0.17604773     40.476048      0.32001723     0.34188073     0.30963041    -456.19023      174.90943     -478.48005     -1065.0001      283.38712      3.2716998     -315.39018    
   5410000   49.380983     -40491.786     -40523.695      31.908582      66732.242     -0.12953099     40.429531     -0.098485797    40.398486     -0.16399174     40.463992      0.31811459     0.33260683     0.31798982    -470.62148     -972.42094     -223.42791     -216.01559      156.76156     -2.6497686     -174.29936    
   5420000   50.585936     -40490.953     -40523.641      32.687189      66701.878     -0.10793191     40.407932     -0.11171739     40.411717     -0.16312361     40.463124      0.30719905     0.34096927     0.33806736     25.30866       24.13053       79.298089     -27.502638     -179.1519      -321.46647     -103.57095    
   5430000   50.315802     -40490.554     -40523.066      32.512636      66725.782     -0.13665293     40.436653     -0.093384665    40.393385     -0.16001094     40.460011      0.31216437     0.3192866      0.30830997    -330.05764     -587.32426     -269.89864     -132.95004      295.43176      161.63237     -56.279139    
   5440000   50.166408     -40491.488     -40523.904      32.416101      66735.466     -0.13969647     40.439696     -0.095397844    40.395398     -0.15789202     40.457892      0.30625313     0.32662089     0.32057227    -272.80598     -659.80854     -220.39258      61.78317      -83.420221      118.79841      11.187537    
   5450000   49.346458     -40492.037     -40523.923      31.886273      66720.395     -0.13274818     40.432748     -0.092541963    40.392542     -0.16312654     40.463127      0.2953961      0.32103284     0.30859058    -173.22493     -437.99526      214.36139     -296.04091      213.00848      359.08007      353.09971    
   5460000   49.953911     -40491.435     -40523.714      32.278792      66725.68      -0.1410101      40.44101      -0.11159017     40.41159      -0.13737366     40.437374      0.3371546      0.33359206     0.32223487    -20.454895      29.15358      -360.22603      269.70777      137.1271      -181.10044     -415.34743    
   5470000   49.529919     -40491.202     -40523.207      32.00482       66711.191     -0.12350217     40.423502     -0.10208863     40.402089     -0.16000859     40.460009      0.27806062     0.33165921     0.3382451      42.688387      163.22952     -293.28267      258.1183      -312.24284      104.45365      474.25066    
   5480000   49.946799     -40491.494     -40523.768      32.274196      66710.404     -0.12438366     40.424384     -0.09483182     40.394832     -0.16616592     40.466166      0.28578134     0.32743167     0.30994381     457.89931      114.33721      666.32944      593.03127      309.82771      240.69611      330.74956    
   5490000   50.192384     -40491.398     -40523.83       32.432886      66730.445     -0.13530053     40.435301     -0.093439574    40.39344      -0.16272946     40.462729      0.31509206     0.35274437     0.32828722     187.77339      23.021479      431.25741      109.04127     -227.07745     -155.91932      51.767919    
   5500000   50.013908     -40491.542     -40523.86       32.31756       66716.813     -0.14022287     40.440223     -0.092948699    40.392949     -0.15414521     40.454145      0.31695147     0.35027358     0.31060163    -9.9893168     -668.08815      423.78439      214.33581      156.34293     -526.44991     -104.16256    
Loop time of 6025.16 on 64 procs for 100000 steps with 5000 atoms

Performance: 0.717 ns/day, 33.473 hours/ns, 16.597 timesteps/s, 82.985 katom-step/s
99.7% CPU use with 64 MPI tasks x 1 OpenMP threads

MPI task timing breakdown:
Section |  min time  |  avg time  |  max time  |%varavg| %total
---------------------------------------------------------------
Pair    | 3486.1     | 4578.8     | 5864.9     | 827.9 | 75.99
Neigh   | 0          | 0          | 0          |   0.0 |  0.00
Comm    | 49.667     | 1209.4     | 2448       |1862.4 | 20.07
Output  | 0.045761   | 0.093665   | 0.12845    |   7.0 |  0.00
Modify  | 54.617     | 235.55     | 724.26     |1095.1 |  3.91
Other   |            | 1.38       |            |       |  0.02

Nlocal:         78.125 ave         100 max          60 min
Histogram: 6 3 10 4 8 17 7 3 4 2
Nghost:        1845.05 ave        1970 max        1717 min
Histogram: 4 4 2 17 5 8 11 5 4 4
Neighs:              0 ave           0 max           0 min
Histogram: 64 0 0 0 0 0 0 0 0 0
FullNghs:      24127.5 ave       30792 max       18362 min
Histogram: 6 2 11 6 6 17 6 4 4 2

Total # of neighbors = 1544162
Ave neighs/atom = 308.8324
Neighbor list builds = 0
Dangerous builds = 0
write_restart relax_${Te}
write_restart relax_50
System init for write_restart ...
unfix 8
undump 3
Total wall time: 76:11:11
