 # File generated with Atomsk by 18123 on 2025-09-30 00:47:49
  
        5000  atoms
           4  atom types
 
      0.000000000000      40.300000000000  xlo xhi
      0.000000000000      40.300000000000  ylo yhi
      0.000000000000      40.300000000000  zlo zhi
 
Masses
 
            1   47.86700000             # Ti
            2   91.22400000             # Zr
            3   207.20000000            # Pb
            4   15.99900000             # O
 
Atoms # atomic
 
         1    1        2.015000000000       2.015000000000       2.015000000000
         2    1        6.045000000000       2.015000000000       2.015000000000
         3    1       10.075000000000       2.015000000000       2.015000000000
         4    2       14.105000000000       2.015000000000       2.015000000000
         5    2       18.135000000000       2.015000000000       2.015000000000
         6    2       22.165000000000       2.015000000000       2.015000000000
         7    2       26.195000000000       2.015000000000       2.015000000000
         8    1       30.225000000000       2.015000000000       2.015000000000
         9    2       34.255000000000       2.015000000000       2.015000000000
        10    2       38.285000000000       2.015000000000       2.015000000000
        11    2        2.015000000000       6.045000000000       2.015000000000
        12    2        6.045000000000       6.045000000000       2.015000000000
        13    2       10.075000000000       6.045000000000       2.015000000000
        14    2       14.105000000000       6.045000000000       2.015000000000
        15    2       18.135000000000       6.045000000000       2.015000000000
        16    2       22.165000000000       6.045000000000       2.015000000000
        17    2       26.195000000000       6.045000000000       2.015000000000
        18    1       30.225000000000       6.045000000000       2.015000000000
        19    2       34.255000000000       6.045000000000       2.015000000000
        20    1       38.285000000000       6.045000000000       2.015000000000
        21    1        2.015000000000      10.075000000000       2.015000000000
        22    1        6.045000000000      10.075000000000       2.015000000000
        23    1       10.075000000000      10.075000000000       2.015000000000
        24    2       14.105000000000      10.075000000000       2.015000000000
        25    1       18.135000000000      10.075000000000       2.015000000000
        26    1       22.165000000000      10.075000000000       2.015000000000
        27    2       26.195000000000      10.075000000000       2.015000000000
        28    2       30.225000000000      10.075000000000       2.015000000000
        29    1       34.255000000000      10.075000000000       2.015000000000
        30    2       38.285000000000      10.075000000000       2.015000000000
        31    1        2.015000000000      14.105000000000       2.015000000000
        32    2        6.045000000000      14.105000000000       2.015000000000
        33    2       10.075000000000      14.105000000000       2.015000000000
        34    2       14.105000000000      14.105000000000       2.015000000000
        35    2       18.135000000000      14.105000000000       2.015000000000
        36    1       22.165000000000      14.105000000000       2.015000000000
        37    1       26.195000000000      14.105000000000       2.015000000000
        38    1       30.225000000000      14.105000000000       2.015000000000
        39    2       34.255000000000      14.105000000000       2.015000000000
        40    1       38.285000000000      14.105000000000       2.015000000000
        41    1        2.015000000000      18.135000000000       2.015000000000
        42    1        6.045000000000      18.135000000000       2.015000000000
        43    2       10.075000000000      18.135000000000       2.015000000000
        44    1       14.105000000000      18.135000000000       2.015000000000
        45    2       18.135000000000      18.135000000000       2.015000000000
        46    1       22.165000000000      18.135000000000       2.015000000000
        47    2       26.195000000000      18.135000000000       2.015000000000
        48    2       30.225000000000      18.135000000000       2.015000000000
        49    2       34.255000000000      18.135000000000       2.015000000000
        50    1       38.285000000000      18.135000000000       2.015000000000
        51    1        2.015000000000      22.165000000000       2.015000000000
        52    1        6.045000000000      22.165000000000       2.015000000000
        53    1       10.075000000000      22.165000000000       2.015000000000
        54    1       14.105000000000      22.165000000000       2.015000000000
        55    1       18.135000000000      22.165000000000       2.015000000000
        56    1       22.165000000000      22.165000000000       2.015000000000
        57    1       26.195000000000      22.165000000000       2.015000000000
        58    1       30.225000000000      22.165000000000       2.015000000000
        59    2       34.255000000000      22.165000000000       2.015000000000
        60    2       38.285000000000      22.165000000000       2.015000000000
        61    2        2.015000000000      26.195000000000       2.015000000000
        62    1        6.045000000000      26.195000000000       2.015000000000
        63    1       10.075000000000      26.195000000000       2.015000000000
        64    2       14.105000000000      26.195000000000       2.015000000000
        65    1       18.135000000000      26.195000000000       2.015000000000
        66    1       22.165000000000      26.195000000000       2.015000000000
        67    1       26.195000000000      26.195000000000       2.015000000000
        68    2       30.225000000000      26.195000000000       2.015000000000
        69    2       34.255000000000      26.195000000000       2.015000000000
        70    1       38.285000000000      26.195000000000       2.015000000000
        71    2        2.015000000000      30.225000000000       2.015000000000
        72    1        6.045000000000      30.225000000000       2.015000000000
        73    1       10.075000000000      30.225000000000       2.015000000000
        74    2       14.105000000000      30.225000000000       2.015000000000
        75    1       18.135000000000      30.225000000000       2.015000000000
        76    1       22.165000000000      30.225000000000       2.015000000000
        77    1       26.195000000000      30.225000000000       2.015000000000
        78    1       30.225000000000      30.225000000000       2.015000000000
        79    1       34.255000000000      30.225000000000       2.015000000000
        80    1       38.285000000000      30.225000000000       2.015000000000
        81    1        2.015000000000      34.255000000000       2.015000000000
        82    1        6.045000000000      34.255000000000       2.015000000000
        83    1       10.075000000000      34.255000000000       2.015000000000
        84    2       14.105000000000      34.255000000000       2.015000000000
        85    1       18.135000000000      34.255000000000       2.015000000000
        86    2       22.165000000000      34.255000000000       2.015000000000
        87    1       26.195000000000      34.255000000000       2.015000000000
        88    1       30.225000000000      34.255000000000       2.015000000000
        89    2       34.255000000000      34.255000000000       2.015000000000
        90    2       38.285000000000      34.255000000000       2.015000000000
        91    1        2.015000000000      38.285000000000       2.015000000000
        92    2        6.045000000000      38.285000000000       2.015000000000
        93    1       10.075000000000      38.285000000000       2.015000000000
        94    1       14.105000000000      38.285000000000       2.015000000000
        95    2       18.135000000000      38.285000000000       2.015000000000
        96    1       22.165000000000      38.285000000000       2.015000000000
        97    1       26.195000000000      38.285000000000       2.015000000000
        98    1       30.225000000000      38.285000000000       2.015000000000
        99    1       34.255000000000      38.285000000000       2.015000000000
       100    1       38.285000000000      38.285000000000       2.015000000000
       101    1        2.015000000000       2.015000000000       6.045000000000
       102    2        6.045000000000       2.015000000000       6.045000000000
       103    2       10.075000000000       2.015000000000       6.045000000000
       104    1       14.105000000000       2.015000000000       6.045000000000
       105    2       18.135000000000       2.015000000000       6.045000000000
       106    1       22.165000000000       2.015000000000       6.045000000000
       107    2       26.195000000000       2.015000000000       6.045000000000
       108    2       30.225000000000       2.015000000000       6.045000000000
       109    2       34.255000000000       2.015000000000       6.045000000000
       110    1       38.285000000000       2.015000000000       6.045000000000
       111    2        2.015000000000       6.045000000000       6.045000000000
       112    1        6.045000000000       6.045000000000       6.045000000000
       113    1       10.075000000000       6.045000000000       6.045000000000
       114    2       14.105000000000       6.045000000000       6.045000000000
       115    2       18.135000000000       6.045000000000       6.045000000000
       116    2       22.165000000000       6.045000000000       6.045000000000
       117    1       26.195000000000       6.045000000000       6.045000000000
       118    1       30.225000000000       6.045000000000       6.045000000000
       119    1       34.255000000000       6.045000000000       6.045000000000
       120    1       38.285000000000       6.045000000000       6.045000000000
       121    1        2.015000000000      10.075000000000       6.045000000000
       122    2        6.045000000000      10.075000000000       6.045000000000
       123    2       10.075000000000      10.075000000000       6.045000000000
       124    1       14.105000000000      10.075000000000       6.045000000000
       125    2       18.135000000000      10.075000000000       6.045000000000
       126    2       22.165000000000      10.075000000000       6.045000000000
       127    1       26.195000000000      10.075000000000       6.045000000000
       128    1       30.225000000000      10.075000000000       6.045000000000
       129    1       34.255000000000      10.075000000000       6.045000000000
       130    2       38.285000000000      10.075000000000       6.045000000000
       131    2        2.015000000000      14.105000000000       6.045000000000
       132    1        6.045000000000      14.105000000000       6.045000000000
       133    2       10.075000000000      14.105000000000       6.045000000000
       134    2       14.105000000000      14.105000000000       6.045000000000
       135    1       18.135000000000      14.105000000000       6.045000000000
       136    2       22.165000000000      14.105000000000       6.045000000000
       137    2       26.195000000000      14.105000000000       6.045000000000
       138    1       30.225000000000      14.105000000000       6.045000000000
       139    1       34.255000000000      14.105000000000       6.045000000000
       140    2       38.285000000000      14.105000000000       6.045000000000
       141    2        2.015000000000      18.135000000000       6.045000000000
       142    2        6.045000000000      18.135000000000       6.045000000000
       143    1       10.075000000000      18.135000000000       6.045000000000
       144    2       14.105000000000      18.135000000000       6.045000000000
       145    2       18.135000000000      18.135000000000       6.045000000000
       146    1       22.165000000000      18.135000000000       6.045000000000
       147    2       26.195000000000      18.135000000000       6.045000000000
       148    1       30.225000000000      18.135000000000       6.045000000000
       149    1       34.255000000000      18.135000000000       6.045000000000
       150    1       38.285000000000      18.135000000000       6.045000000000
       151    1        2.015000000000      22.165000000000       6.045000000000
       152    2        6.045000000000      22.165000000000       6.045000000000
       153    1       10.075000000000      22.165000000000       6.045000000000
       154    2       14.105000000000      22.165000000000       6.045000000000
       155    2       18.135000000000      22.165000000000       6.045000000000
       156    1       22.165000000000      22.165000000000       6.045000000000
       157    1       26.195000000000      22.165000000000       6.045000000000
       158    1       30.225000000000      22.165000000000       6.045000000000
       159    1       34.255000000000      22.165000000000       6.045000000000
       160    2       38.285000000000      22.165000000000       6.045000000000
       161    2        2.015000000000      26.195000000000       6.045000000000
       162    1        6.045000000000      26.195000000000       6.045000000000
       163    1       10.075000000000      26.195000000000       6.045000000000
       164    1       14.105000000000      26.195000000000       6.045000000000
       165    1       18.135000000000      26.195000000000       6.045000000000
       166    2       22.165000000000      26.195000000000       6.045000000000
       167    2       26.195000000000      26.195000000000       6.045000000000
       168    2       30.225000000000      26.195000000000       6.045000000000
       169    2       34.255000000000      26.195000000000       6.045000000000
       170    1       38.285000000000      26.195000000000       6.045000000000
       171    2        2.015000000000      30.225000000000       6.045000000000
       172    1        6.045000000000      30.225000000000       6.045000000000
       173    1       10.075000000000      30.225000000000       6.045000000000
       174    1       14.105000000000      30.225000000000       6.045000000000
       175    2       18.135000000000      30.225000000000       6.045000000000
       176    1       22.165000000000      30.225000000000       6.045000000000
       177    2       26.195000000000      30.225000000000       6.045000000000
       178    2       30.225000000000      30.225000000000       6.045000000000
       179    1       34.255000000000      30.225000000000       6.045000000000
       180    1       38.285000000000      30.225000000000       6.045000000000
       181    2        2.015000000000      34.255000000000       6.045000000000
       182    2        6.045000000000      34.255000000000       6.045000000000
       183    1       10.075000000000      34.255000000000       6.045000000000
       184    1       14.105000000000      34.255000000000       6.045000000000
       185    1       18.135000000000      34.255000000000       6.045000000000
       186    2       22.165000000000      34.255000000000       6.045000000000
       187    1       26.195000000000      34.255000000000       6.045000000000
       188    1       30.225000000000      34.255000000000       6.045000000000
       189    1       34.255000000000      34.255000000000       6.045000000000
       190    2       38.285000000000      34.255000000000       6.045000000000
       191    1        2.015000000000      38.285000000000       6.045000000000
       192    2        6.045000000000      38.285000000000       6.045000000000
       193    1       10.075000000000      38.285000000000       6.045000000000
       194    1       14.105000000000      38.285000000000       6.045000000000
       195    1       18.135000000000      38.285000000000       6.045000000000
       196    1       22.165000000000      38.285000000000       6.045000000000
       197    1       26.195000000000      38.285000000000       6.045000000000
       198    2       30.225000000000      38.285000000000       6.045000000000
       199    1       34.255000000000      38.285000000000       6.045000000000
       200    1       38.285000000000      38.285000000000       6.045000000000
       201    2        2.015000000000       2.015000000000      10.075000000000
       202    2        6.045000000000       2.015000000000      10.075000000000
       203    1       10.075000000000       2.015000000000      10.075000000000
       204    1       14.105000000000       2.015000000000      10.075000000000
       205    1       18.135000000000       2.015000000000      10.075000000000
       206    1       22.165000000000       2.015000000000      10.075000000000
       207    2       26.195000000000       2.015000000000      10.075000000000
       208    2       30.225000000000       2.015000000000      10.075000000000
       209    1       34.255000000000       2.015000000000      10.075000000000
       210    1       38.285000000000       2.015000000000      10.075000000000
       211    2        2.015000000000       6.045000000000      10.075000000000
       212    2        6.045000000000       6.045000000000      10.075000000000
       213    1       10.075000000000       6.045000000000      10.075000000000
       214    1       14.105000000000       6.045000000000      10.075000000000
       215    1       18.135000000000       6.045000000000      10.075000000000
       216    2       22.165000000000       6.045000000000      10.075000000000
       217    2       26.195000000000       6.045000000000      10.075000000000
       218    1       30.225000000000       6.045000000000      10.075000000000
       219    2       34.255000000000       6.045000000000      10.075000000000
       220    1       38.285000000000       6.045000000000      10.075000000000
       221    2        2.015000000000      10.075000000000      10.075000000000
       222    1        6.045000000000      10.075000000000      10.075000000000
       223    2       10.075000000000      10.075000000000      10.075000000000
       224    1       14.105000000000      10.075000000000      10.075000000000
       225    2       18.135000000000      10.075000000000      10.075000000000
       226    2       22.165000000000      10.075000000000      10.075000000000
       227    1       26.195000000000      10.075000000000      10.075000000000
       228    2       30.225000000000      10.075000000000      10.075000000000
       229    1       34.255000000000      10.075000000000      10.075000000000
       230    1       38.285000000000      10.075000000000      10.075000000000
       231    2        2.015000000000      14.105000000000      10.075000000000
       232    2        6.045000000000      14.105000000000      10.075000000000
       233    1       10.075000000000      14.105000000000      10.075000000000
       234    2       14.105000000000      14.105000000000      10.075000000000
       235    1       18.135000000000      14.105000000000      10.075000000000
       236    1       22.165000000000      14.105000000000      10.075000000000
       237    1       26.195000000000      14.105000000000      10.075000000000
       238    1       30.225000000000      14.105000000000      10.075000000000
       239    2       34.255000000000      14.105000000000      10.075000000000
       240    1       38.285000000000      14.105000000000      10.075000000000
       241    2        2.015000000000      18.135000000000      10.075000000000
       242    1        6.045000000000      18.135000000000      10.075000000000
       243    1       10.075000000000      18.135000000000      10.075000000000
       244    2       14.105000000000      18.135000000000      10.075000000000
       245    2       18.135000000000      18.135000000000      10.075000000000
       246    2       22.165000000000      18.135000000000      10.075000000000
       247    1       26.195000000000      18.135000000000      10.075000000000
       248    2       30.225000000000      18.135000000000      10.075000000000
       249    1       34.255000000000      18.135000000000      10.075000000000
       250    1       38.285000000000      18.135000000000      10.075000000000
       251    2        2.015000000000      22.165000000000      10.075000000000
       252    2        6.045000000000      22.165000000000      10.075000000000
       253    2       10.075000000000      22.165000000000      10.075000000000
       254    2       14.105000000000      22.165000000000      10.075000000000
       255    1       18.135000000000      22.165000000000      10.075000000000
       256    2       22.165000000000      22.165000000000      10.075000000000
       257    2       26.195000000000      22.165000000000      10.075000000000
       258    1       30.225000000000      22.165000000000      10.075000000000
       259    1       34.255000000000      22.165000000000      10.075000000000
       260    2       38.285000000000      22.165000000000      10.075000000000
       261    2        2.015000000000      26.195000000000      10.075000000000
       262    1        6.045000000000      26.195000000000      10.075000000000
       263    1       10.075000000000      26.195000000000      10.075000000000
       264    2       14.105000000000      26.195000000000      10.075000000000
       265    1       18.135000000000      26.195000000000      10.075000000000
       266    2       22.165000000000      26.195000000000      10.075000000000
       267    2       26.195000000000      26.195000000000      10.075000000000
       268    1       30.225000000000      26.195000000000      10.075000000000
       269    2       34.255000000000      26.195000000000      10.075000000000
       270    2       38.285000000000      26.195000000000      10.075000000000
       271    2        2.015000000000      30.225000000000      10.075000000000
       272    2        6.045000000000      30.225000000000      10.075000000000
       273    2       10.075000000000      30.225000000000      10.075000000000
       274    1       14.105000000000      30.225000000000      10.075000000000
       275    1       18.135000000000      30.225000000000      10.075000000000
       276    1       22.165000000000      30.225000000000      10.075000000000
       277    1       26.195000000000      30.225000000000      10.075000000000
       278    2       30.225000000000      30.225000000000      10.075000000000
       279    1       34.255000000000      30.225000000000      10.075000000000
       280    2       38.285000000000      30.225000000000      10.075000000000
       281    1        2.015000000000      34.255000000000      10.075000000000
       282    2        6.045000000000      34.255000000000      10.075000000000
       283    2       10.075000000000      34.255000000000      10.075000000000
       284    2       14.105000000000      34.255000000000      10.075000000000
       285    1       18.135000000000      34.255000000000      10.075000000000
       286    1       22.165000000000      34.255000000000      10.075000000000
       287    2       26.195000000000      34.255000000000      10.075000000000
       288    2       30.225000000000      34.255000000000      10.075000000000
       289    1       34.255000000000      34.255000000000      10.075000000000
       290    1       38.285000000000      34.255000000000      10.075000000000
       291    1        2.015000000000      38.285000000000      10.075000000000
       292    2        6.045000000000      38.285000000000      10.075000000000
       293    1       10.075000000000      38.285000000000      10.075000000000
       294    1       14.105000000000      38.285000000000      10.075000000000
       295    2       18.135000000000      38.285000000000      10.075000000000
       296    2       22.165000000000      38.285000000000      10.075000000000
       297    2       26.195000000000      38.285000000000      10.075000000000
       298    2       30.225000000000      38.285000000000      10.075000000000
       299    1       34.255000000000      38.285000000000      10.075000000000
       300    1       38.285000000000      38.285000000000      10.075000000000
       301    1        2.015000000000       2.015000000000      14.105000000000
       302    1        6.045000000000       2.015000000000      14.105000000000
       303    1       10.075000000000       2.015000000000      14.105000000000
       304    2       14.105000000000       2.015000000000      14.105000000000
       305    1       18.135000000000       2.015000000000      14.105000000000
       306    2       22.165000000000       2.015000000000      14.105000000000
       307    1       26.195000000000       2.015000000000      14.105000000000
       308    2       30.225000000000       2.015000000000      14.105000000000
       309    2       34.255000000000       2.015000000000      14.105000000000
       310    1       38.285000000000       2.015000000000      14.105000000000
       311    1        2.015000000000       6.045000000000      14.105000000000
       312    2        6.045000000000       6.045000000000      14.105000000000
       313    2       10.075000000000       6.045000000000      14.105000000000
       314    1       14.105000000000       6.045000000000      14.105000000000
       315    1       18.135000000000       6.045000000000      14.105000000000
       316    1       22.165000000000       6.045000000000      14.105000000000
       317    1       26.195000000000       6.045000000000      14.105000000000
       318    2       30.225000000000       6.045000000000      14.105000000000
       319    1       34.255000000000       6.045000000000      14.105000000000
       320    1       38.285000000000       6.045000000000      14.105000000000
       321    2        2.015000000000      10.075000000000      14.105000000000
       322    1        6.045000000000      10.075000000000      14.105000000000
       323    2       10.075000000000      10.075000000000      14.105000000000
       324    2       14.105000000000      10.075000000000      14.105000000000
       325    2       18.135000000000      10.075000000000      14.105000000000
       326    2       22.165000000000      10.075000000000      14.105000000000
       327    2       26.195000000000      10.075000000000      14.105000000000
       328    1       30.225000000000      10.075000000000      14.105000000000
       329    2       34.255000000000      10.075000000000      14.105000000000
       330    1       38.285000000000      10.075000000000      14.105000000000
       331    1        2.015000000000      14.105000000000      14.105000000000
       332    2        6.045000000000      14.105000000000      14.105000000000
       333    1       10.075000000000      14.105000000000      14.105000000000
       334    1       14.105000000000      14.105000000000      14.105000000000
       335    2       18.135000000000      14.105000000000      14.105000000000
       336    2       22.165000000000      14.105000000000      14.105000000000
       337    1       26.195000000000      14.105000000000      14.105000000000
       338    2       30.225000000000      14.105000000000      14.105000000000
       339    1       34.255000000000      14.105000000000      14.105000000000
       340    1       38.285000000000      14.105000000000      14.105000000000
       341    2        2.015000000000      18.135000000000      14.105000000000
       342    1        6.045000000000      18.135000000000      14.105000000000
       343    1       10.075000000000      18.135000000000      14.105000000000
       344    2       14.105000000000      18.135000000000      14.105000000000
       345    2       18.135000000000      18.135000000000      14.105000000000
       346    2       22.165000000000      18.135000000000      14.105000000000
       347    1       26.195000000000      18.135000000000      14.105000000000
       348    1       30.225000000000      18.135000000000      14.105000000000
       349    2       34.255000000000      18.135000000000      14.105000000000
       350    1       38.285000000000      18.135000000000      14.105000000000
       351    2        2.015000000000      22.165000000000      14.105000000000
       352    1        6.045000000000      22.165000000000      14.105000000000
       353    2       10.075000000000      22.165000000000      14.105000000000
       354    2       14.105000000000      22.165000000000      14.105000000000
       355    1       18.135000000000      22.165000000000      14.105000000000
       356    2       22.165000000000      22.165000000000      14.105000000000
       357    2       26.195000000000      22.165000000000      14.105000000000
       358    1       30.225000000000      22.165000000000      14.105000000000
       359    2       34.255000000000      22.165000000000      14.105000000000
       360    2       38.285000000000      22.165000000000      14.105000000000
       361    2        2.015000000000      26.195000000000      14.105000000000
       362    2        6.045000000000      26.195000000000      14.105000000000
       363    2       10.075000000000      26.195000000000      14.105000000000
       364    1       14.105000000000      26.195000000000      14.105000000000