LAMMPS (2 Aug 2023 - Update 3)
OMP_NUM_THREADS environment is not set. Defaulting to 1 thread. (../comm.cpp:98)
  using 1 OpenMP thread(s) per MPI task
Reading data file ...
  orthogonal box = (0 0 0) to (80.6 80.6 80.6)
  4 by 4 by 4 MPI processor grid
  reading atoms ...
  40000 atoms
  read_data CPU = 0.181 seconds
Changing box ...
  triclinic box = (0 0 0) to (80.6 80.6 80.6) with tilt (0 0 0)
Use the NEP4 potential with 4 atom types.
    type 0( Zr with Z = 40).
    type 1( Ti with Z = 22).
    type 2( Pb with Z = 82).
    type 3( O with Z = 8).
    has universal ZBL with inner cutoff 0.75 A and outer cutoff 1.5 A.
    ZBL typewise cutoff is enabled with factor 0.65.
    radial cutoff = 8 A.
    angular cutoff = 6 A.
    n_max_radial = 8.
    n_max_angular = 8.
    basis_size_radial = 12.
    basis_size_angular = 12.
    l_max_3body = 4.
    l_max_4body = 2.
    l_max_5body = 1.
    ANN = 63-60-1.
    number of neural network parameters = 15601.
    number of descriptor parameters = 3744.
    total number of parameters = 19345.
WARNING: No fixes with time integration, atoms won't move (../verlet.cpp:60)
Neighbor list info ...
  update: every = 1 steps, delay = 0 steps, check = yes
  max neighbors/atom: 2000, page size: 100000
  master list distance cutoff = 10
  ghost atom cutoff = 10
  binsize = 5, bins = 17 17 17
  1 neighbor lists, perpetual/occasional/extra = 1 0 0
  (1) pair nep, perpetual
      attributes: full, newton on
      pair build: full/bin/atomonly
      stencil: full/bin/3d
      bin: standard
Setting up Verlet run ...
  Unit style    : metal
  Current step  : 0
  Time step     : 0.001
Per MPI rank memory allocation (min/avg/max) = 3.679 | 3.679 | 3.679 Mbytes
   Step          Temp          E_pair         E_mol          TotEng         Press     
         0   300           -321623.54      0             -320072.46      18839.086    
Loop time of 1.57559e-05 on 64 procs for 0 steps with 40000 atoms

102.6% CPU use with 64 MPI tasks x 1 OpenMP threads

MPI task timing breakdown:
Section |  min time  |  avg time  |  max time  |%varavg| %total
---------------------------------------------------------------
Pair    | 0          | 0          | 0          |   0.0 |  0.00
Neigh   | 0          | 0          | 0          |   0.0 |  0.00
Comm    | 0          | 0          | 0          |   0.0 |  0.00
Output  | 0          | 0          | 0          |   0.0 |  0.00
Modify  | 0          | 0          | 0          |   0.0 |  0.00
Other   |            | 1.576e-05  |            |       |100.00

Nlocal:            625 ave         625 max         625 min
Histogram: 64 0 0 0 0 0 0 0 0 0
Nghost:           3534 ave        3534 max        3534 min
Histogram: 64 0 0 0 0 0 0 0 0 0
Neighs:              0 ave           0 max           0 min
Histogram: 64 0 0 0 0 0 0 0 0 0
FullNghs:       193000 ave      193000 max      193000 min
Histogram: 64 0 0 0 0 0 0 0 0 0

Total # of neighbors = 12352000
Ave neighs/atom = 308.8
Neighbor list builds = 0
Dangerous builds = 0
Setting up Verlet run ...
  Unit style    : metal
  Current step  : 0
  Time step     : 0.001
Per MPI rank memory allocation (min/avg/max) = 3.679 | 3.679 | 3.679 Mbytes
   Step          Temp          E_pair         E_mol          TotEng         Press     
         0   300           -321623.54      0             -320072.46      18839.086    
      1000   392.01262     -322101.03      0             -320074.22      26729.04     
      2000   396.29478     -322123.18      0             -320074.22      26990.274    
      3000   396.45366     -322123.99      0             -320074.21      26332.405    
      4000   398.55465     -322134.86      0             -320074.22      26489.387    
      5000   396.84881     -322126.05      0             -320074.23      26156.825    
      6000   397.23141     -322128.01      0             -320074.22      26988.415    
      7000   398.2874      -322133.49      0             -320074.23      26232.739    
      8000   398.81135     -322136.19      0             -320074.23      26919.876    
      9000   396.22523     -322122.8       0             -320074.2       26608.941    
     10000   398.35834     -322133.84      0             -320074.22      26461.451    
Loop time of 1924.06 on 64 procs for 10000 steps with 40000 atoms

Performance: 0.449 ns/day, 53.446 hours/ns, 5.197 timesteps/s, 207.893 katom-step/s
99.8% CPU use with 64 MPI tasks x 1 OpenMP threads

MPI task timing breakdown:
Section |  min time  |  avg time  |  max time  |%varavg| %total
---------------------------------------------------------------
Pair    | 1793.9     | 1838.4     | 1905.9     |  83.9 | 95.55
Neigh   | 0.0072367  | 0.0075801  | 0.0080262  |   0.2 |  0.00
Comm    | 8.3118     | 68.03      | 119.92     | 452.5 |  3.54
Output  | 0.00098457 | 0.026142   | 0.052196   |  13.1 |  0.00
Modify  | 0.058104   | 0.067836   | 0.077372   |   1.8 |  0.00
Other   |            | 17.48      |            |       |  0.91

Nlocal:            625 ave         661 max         599 min
Histogram: 7 7 10 6 8 10 9 3 2 2
Nghost:        4034.73 ave        4096 max        3970 min
Histogram: 4 3 4 8 12 7 12 3 9 2
Neighs:              0 ave           0 max           0 min
Histogram: 64 0 0 0 0 0 0 0 0 0
FullNghs:       196136 ave      208362 max      187565 min
Histogram: 7 7 10 7 9 8 10 2 2 2

Total # of neighbors = 12552710
Ave neighs/atom = 313.81775
Neighbor list builds = 2
Dangerous builds = 0
Setting up cg style minimization ...
  Unit style    : metal
  Current step  : 10000
Per MPI rank memory allocation (min/avg/max) = 4.81 | 5.031 | 5.192 Mbytes
   Step          Temp          E_pair         E_mol          TotEng         Press     
     10000   398.35834     -322133.84      0             -320074.22      26461.451    
     11000   398.35834     -324380.46      0             -322320.84      21428.321    
     11002   398.35834     -324380.47      0             -322320.84      21427.707    
Loop time of 408.153 on 64 procs for 1002 steps with 40000 atoms

99.7% CPU use with 64 MPI tasks x 1 OpenMP threads

Minimization stats:
  Stopping criterion = energy tolerance
  Energy initial, next-to-last, final = 
     -322133.844383334  -324380.464254718  -324380.467320303
  Force two-norm initial, final = 209.88027 0.25385159
  Force max component initial, final = 4.2858275 0.04111357
  Final line search alpha, max atom move = 1 0.04111357
  Iterations, force evaluations = 1002 1995

MPI task timing breakdown:
Section |  min time  |  avg time  |  max time  |%varavg| %total
---------------------------------------------------------------
Pair    | 347.47     | 375.16     | 402.47     |  62.3 | 91.92
Neigh   | 0.0072164  | 0.0076777  | 0.0080934  |   0.2 |  0.00
Comm    | 2.3294     | 26.421     | 52.887     | 247.6 |  6.47
Output  | 6.9472e-05 | 7.2374e-05 | 0.00018534 |   0.0 |  0.00
Modify  | 0          | 0          | 0          |   0.0 |  0.00
Other   |            | 6.563      |            |       |  1.61

Nlocal:            625 ave         652 max         589 min
Histogram: 1 0 3 11 9 11 12 12 1 4
Nghost:        3998.91 ave        4091 max        3903 min
Histogram: 2 4 6 5 12 16 7 7 1 4
Neighs:              0 ave           0 max           0 min
Histogram: 64 0 0 0 0 0 0 0 0 0
FullNghs:       198521 ave      208339 max      186144 min
Histogram: 1 0 4 9 14 7 13 10 4 2

Total # of neighbors = 12705328
Ave neighs/atom = 317.6332
Neighbor list builds = 2
Dangerous builds = 0
System init for write_restart ...
Setting up Verlet run ...
  Unit style    : metal
  Current step  : 0
  Time step     : 0.001
Per MPI rank memory allocation (min/avg/max) = 3.717 | 3.991 | 4.099 Mbytes
   Step          Temp          E_pair         E_mol          TotEng         Press          Volume    
         0   398.35834     -324380.47      0             -322320.84      21427.707      523606.62    
      1000   305.35568     -322798.11      0             -321219.34     -72.67221       536646.69    
      2000   300.33008     -322811.08      0             -321258.29      137.52727      536466.99    
      3000   299.14185     -322811.23      0             -321264.58      65.936638      536724.84    
      4000   299.04197     -322803.29      0             -321257.17      102.50576      536713.71    
      5000   300.73078     -322815.35      0             -321260.49     -13.870284      536669.17    
      6000   300.57982     -322808.08      0             -321254         69.44505       536572.49    
      7000   300.65351     -322814.56      0             -321260.1       326.7597       536694.97    
      8000   298.15037     -322793.88      0             -321252.36     -557.98718      536701.24    
      9000   299.90574     -322810.36      0             -321259.76      227.32896      536527.75    
     10000   301.0784      -322809.89      0             -321253.24      104.71638      536731.78    
     11000   300.05189     -322811.3       0             -321259.95      334.84156      536614.22    
     12000   300.5868      -322809.18      0             -321255.06     -153.48528      536542.84    
     13000   299.86181     -322813.12      0             -321262.75      790.70779      536377.65    
     14000   301.21352     -322805.45      0             -321248.09      131.14839      536489.67    
     15000   300.64815     -322799.93      0             -321245.49      442.08359      536599.51    
     16000   300.11175     -322817.66      0             -321266         25.857253      536378.94    
     17000   300.37613     -322799.75      0             -321246.72      93.513954      536433.37    
     18000   298.2442      -322813.77      0             -321271.76      221.09063      536487.47    
     19000   301.50202     -322809.12      0             -321250.27     -173.28696      536601.81    
     20000   298.86566     -322800.96      0             -321255.74     -305.44186      536757.21    
     21000   299.25291     -322810.88      0             -321263.66     -642.06723      536858.63    
     22000   299.45606     -322810.02      0             -321261.75     -300.53006      536771.88    
     23000   299.74115     -322815.02      0             -321265.28      135.6178       536468.91    
     24000   299.18128     -322810.32      0             -321263.47     -156.48388      536564.23    
     25000   300.6896      -322807.89      0             -321253.24     -72.034572      536546.09    
     26000   298.8344      -322804.52      0             -321259.46     -606.53198      536725.68    
     27000   299.13833     -322807.28      0             -321260.66     -36.176131      536735.73    
     28000   301.69053     -322817.21      0             -321257.39      273.10907      536346.08    
     29000   301.29068     -322813.52      0             -321255.76      242.0557       536599.14    
     30000   298.40194     -322814.38      0             -321271.56      51.004616      536619.32    
     31000   299.60646     -322811.89      0             -321262.84      113.81378      536615.47    
     32000   299.20886     -322803.91      0             -321256.92     -526.65451      536774.67    
     33000   298.24923     -322802.98      0             -321260.95     -116.12102      536794.7     
     34000   300.5973      -322807.08      0             -321252.91     -168.11716      536663.34    
     35000   300.81649     -322812.08      0             -321256.78     -353.17155      536786.08    
     36000   299.78062     -322819.02      0             -321269.07      626.42051      536404.52    
     37000   302.74798     -322793.07      0             -321227.78      116.76492      536594.49    
     38000   299.76501     -322803.49      0             -321253.62      344.88394      536560.97    
     39000   301.22918     -322825.64      0             -321268.2      -32.36677       536646.38    
     40000   300.66075     -322804.46      0             -321249.96      214.38197      536554.18    
     41000   300.34312     -322807.23      0             -321254.37     -802.21566      536618.05    
     42000   303.41372     -322806.33      0             -321237.59     -318.28658      536814.83    
     43000   300.20859     -322812.52      0             -321260.36     -404.15432      536644.21    
     44000   299.42703     -322808.58      0             -321260.46      170.87347      536620.53    
     45000   301.52313     -322797.58      0             -321238.62     -511.81789      536785.5     
     46000   301.07817     -322823.35      0             -321266.69     -126.82457      536717.88    
     47000   299.12023     -322790.99      0             -321244.46      175.55346      536693.27    
     48000   301.01493     -322825.26      0             -321268.93     -996.87693      536916.69    
     49000   300.93599     -322805.83      0             -321249.91      529.1135       536367.3     
     50000   297.54615     -322804.97      0             -321266.57     -81.463889      536615.03    
     51000   299.38479     -322806.05      0             -321258.15      166.04406      536736.08    
     52000   300.50156     -322795.83      0             -321242.16      133.73989      536744.56    
     53000   301.86083     -322798.39      0             -321237.69     -239.52773      536637.48    
     54000   299.58646     -322809.98      0             -321261.04      407.97369      536635.44    
     55000   299.44471     -322814.62      0             -321266.41     -245.01344      536578.4     
     56000   299.87625     -322805.13      0             -321254.68     -516.42865      536813.91    
     57000   301.63088     -322807.95      0             -321248.43      268.10961      536765.07    
     58000   298.63198     -322812.48      0             -321268.47      34.78013       536465.61    
     59000   299.65122     -322811         0             -321261.72      210.26194      536631.7     
     60000   301.58283     -322794.61      0             -321235.34     -485.06477      536873.08    
     61000   300.89072     -322819.28      0             -321263.59      369.74666      536538.69    
     62000   298.9361      -322801.72      0             -321256.13     -109.10996      536746.37    
     63000   297.8131      -322817.31      0             -321277.53      308.49919      536627.48    
     64000   301.23635     -322819.72      0             -321262.24     -36.879846      536584.1     
     65000   300.05634     -322800.48      0             -321249.1      -139.70575      536563.84    
     66000   300.61082     -322805.47      0             -321251.22      434.18721      536709.91    
     67000   300.91636     -322800.81      0             -321244.99      830.52117      536514.94    
     68000   298.92616     -322811.66      0             -321266.12     -320.27143      536602.63    
     69000   300.98548     -322814.56      0             -321258.38      197.3649       536586.44    
     70000   299.83489     -322812.76      0             -321262.53      143.66093      536656.65    
     71000   297.52508     -322811.56      0             -321273.28     -468.2074       536528.87    
     72000   301.85734     -322814.82      0             -321254.13      886.80504      536441.94    
     73000   298.98561     -322806.34      0             -321260.51     -204.40873      536777.76    
     74000   300.68426     -322826.64      0             -321272.02      853.33711      536405.3     
     75000   301.62496     -322807.62      0             -321248.13      282.35674      536617.98    
     76000   299.00837     -322810.11      0             -321264.15     -389.55249      536757.75    
     77000   301.84936     -322814.73      0             -321254.09     -684.15597      536670.1     
     78000   298.95167     -322823.05      0             -321277.39      527.80951      536568.39    
     79000   301.52464     -322806.39      0             -321247.42      28.200709      536555.08    
     80000   299.61181     -322802.66      0             -321253.58      414.69812      536536.65    
     81000   300.8703      -322815.73      0             -321260.15     -571.504        536746.12    
     82000   299.77334     -322804.39      0             -321254.48     -253.35375      536677.17    
     83000   300.37192     -322803.47      0             -321250.46     -292.4724       536740.88    
     84000   298.39966     -322809.7       0             -321266.89     -536.11652      536840.6     
     85000   301.08593     -322803.77      0             -321247.07      98.861642      536640.6     
     86000   301.48457     -322813.6       0             -321254.84      278.29313      536655.94    
     87000   299.8019      -322814.67      0             -321264.61      406.85349      536418.5     
     88000   300.0518      -322799.54      0             -321248.19     -600.511        536768.88    
     89000   300.22926     -322816.29      0             -321264.03      368.79331      536648.12    
     90000   299.94116     -322801.64      0             -321250.86     -304.83384      536778.05    
     91000   299.73937     -322809.52      0             -321259.78     -454.01734      536737.66    
     92000   300.21263     -322813.3       0             -321261.12     -419.46214      536753.75    
     93000   301.44799     -322808.34      0             -321249.77      65.722964      536611.54    
     94000   299.79601     -322801.63      0             -321251.61      383.66844      536449.02    
     95000   299.64695     -322810.68      0             -321261.42      689.39752      536369.87    
     96000   300.88297     -322798.16      0             -321242.51      992.09276      536294.59    
     97000   299.79603     -322805.21      0             -321255.19     -472.87949      536746.25    
     98000   299.12282     -322804.38      0             -321257.83      6.9721975      536743.46    
     99000   299.13173     -322814.78      0             -321268.19     -371.37059      536539.12    
    100000   298.79493     -322803.28      0             -321258.43      184.50384      536705.23    
Loop time of 19615.2 on 64 procs for 100000 steps with 40000 atoms

Performance: 0.440 ns/day, 54.487 hours/ns, 5.098 timesteps/s, 203.924 katom-step/s
99.7% CPU use with 64 MPI tasks x 1 OpenMP threads

MPI task timing breakdown:
Section |  min time  |  avg time  |  max time  |%varavg| %total
---------------------------------------------------------------
Pair    | 16924      | 18185      | 19323      | 444.2 | 92.71
Neigh   | 2.9961     | 3.2237     | 3.4252     |   6.7 |  0.02
Comm    | 111.98     | 1266.7     | 2395.7     |1705.1 |  6.46
Output  | 0.026875   | 0.032346   | 0.048379   |   2.0 |  0.00
Modify  | 51.258     | 158.51     | 329.63     | 495.0 |  0.81
Other   |            | 2.157      |            |       |  0.01

Nlocal:            625 ave         658 max         591 min
Histogram: 2 2 6 7 15 9 13 6 3 1
Nghost:        3764.31 ave        3805 max        3699 min
Histogram: 1 1 2 3 11 11 11 11 8 5
Neighs:              0 ave           0 max           0 min
Histogram: 64 0 0 0 0 0 0 0 0 0
FullNghs:       190664 ave      201484 max      180112 min
Histogram: 2 2 7 9 13 9 13 5 3 1

Total # of neighbors = 12202504
Ave neighs/atom = 305.0626
Neighbor list builds = 825
Dangerous builds = 0
System init for write_data ...
Total wall time: 6:05:48
