# LAMMPS data file written by OVITO Basic 3.9.4

40000 atoms
4 atom types

0.0 80.6 xlo xhi
0.0 80.6 ylo yhi
0.0 80.6 zlo zhi

Masses

1 47.867  # Ti
2 91.224  # Zr
3 207.2  # Pb
4 15.9994  # O

Atoms  # atomic

1 1 2.015 2.015 2.015
2 2 6.045 2.015 2.015
3 1 10.075 2.015 2.015
4 1 14.105 2.015 2.015
5 2 18.135 2.015 2.015
6 1 22.165 2.015 2.015
7 2 26.195 2.015 2.015
8 2 30.225 2.015 2.015
9 2 34.255 2.015 2.015
10 1 38.285 2.015 2.015
11 2 42.315 2.015 2.015
12 1 46.345 2.015 2.015
13 1 50.375 2.015 2.015
14 2 54.405 2.015 2.015
15 1 58.435 2.015 2.015
16 1 62.465 2.015 2.015
17 2 66.495 2.015 2.015
18 1 70.525 2.015 2.015
19 1 74.555 2.015 2.015
20 1 78.585 2.015 2.015
21 1 2.015 6.045 2.015
22 1 6.045 6.045 2.015
23 1 10.075 6.045 2.015
24 1 14.105 6.045 2.015
25 2 18.135 6.045 2.015
26 2 22.165 6.045 2.015
27 2 26.195 6.045 2.015
28 2 30.225 6.045 2.015
29 1 34.255 6.045 2.015
30 2 38.285 6.045 2.015
31 1 42.315 6.045 2.015
32 1 46.345 6.045 2.015
33 1 50.375 6.045 2.015
34 1 54.405 6.045 2.015
35 1 58.435 6.045 2.015
36 2 62.465 6.045 2.015
37 1 66.495 6.045 2.015
38 2 70.525 6.045 2.015
39 1 74.555 6.045 2.015
40 2 78.585 6.045 2.015
41 2 2.015 10.075 2.015
42 2 6.045 10.075 2.015
43 1 10.075 10.075 2.015
44 2 14.105 10.075 2.015
45 1 18.135 10.075 2.015
46 1 22.165 10.075 2.015
47 1 26.195 10.075 2.015
48 2 30.225 10.075 2.015
49 1 34.255 10.075 2.015
50 1 38.285 10.075 2.015
51 2 42.315 10.075 2.015
52 2 46.345 10.075 2.015
53 2 50.375 10.075 2.015
54 2 54.405 10.075 2.015
55 1 58.435 10.075 2.015
56 2 62.465 10.075 2.015
57 1 66.495 10.075 2.015
58 2 70.525 10.075 2.015
59 1 74.555 10.075 2.015
60 2 78.585 10.075 2.015
61 2 2.015 14.105 2.015
62 2 6.045 14.105 2.015
63 2 10.075 14.105 2.015
64 2 14.105 14.105 2.015
65 1 18.135 14.105 2.015
66 2 22.165 14.105 2.015
67 2 26.195 14.105 2.015
68 2 30.225 14.105 2.015
69 2 34.255 14.105 2.015
70 1 38.285 14.105 2.015
71 1 42.315 14.105 2.015
72 1 46.345 14.105 2.015
73 1 50.375 14.105 2.015
74 2 54.405 14.105 2.015
75 1 58.435 14.105 2.015
76 1 62.465 14.105 2.015
77 1 66.495 14.105 2.015
78 2 70.525 14.105 2.015
79 1 74.555 14.105 2.015
80 1 78.585 14.105 2.015
81 2 2.015 18.135 2.015
82 2 6.045 18.135 2.015
83 1 10.075 18.135 2.015
84 1 14.105 18.135 2.015
85 2 18.135 18.135 2.015
86 2 22.165 18.135 2.015
87 2 26.195 18.135 2.015
88 2 30.225 18.135 2.015
89 1 34.255 18.135 2.015
90 1 38.285 18.135 2.015
91 2 42.315 18.135 2.015
92 1 46.345 18.135 2.015
93 1 50.375 18.135 2.015
94 1 54.405 18.135 2.015
95 1 58.435 18.135 2.015
96 2 62.465 18.135 2.015
97 2 66.495 18.135 2.015
98 1 70.525 18.135 2.015
99 2 74.555 18.135 2.015
100 1 78.585 18.135 2.015
101 1 2.015 22.165 2.015
102 1 6.045 22.165 2.015
103 1 10.075 22.165 2.015
104 2 14.105 22.165 2.015
105 1 18.135 22.165 2.015
106 2 22.165 22.165 2.015
107 2 26.195 22.165 2.015
108 2 30.225 22.165 2.015
109 2 34.255 22.165 2.015
110 1 38.285 22.165 2.015
111 1 42.315 22.165 2.015
112 2 46.345 22.165 2.015
113 1 50.375 22.165 2.015
114 1 54.405 22.165 2.015
115 2 58.435 22.165 2.015
116 1 62.465 22.165 2.015
117 1 66.495 22.165 2.015
118 2 70.525 22.165 2.015
119 1 74.555 22.165 2.015
120 1 78.585 22.165 2.015
121 2 2.015 26.195 2.015
122 2 6.045 26.195 2.015
123 2 10.075 26.195 2.015
124 1 14.105 26.195 2.015
125 1 18.135 26.195 2.015
126 2 22.165 26.195 2.015
127 1 26.195 26.195 2.015
128 1 30.225 26.195 2.015
129 2 34.255 26.195 2.015
130 1 38.285 26.195 2.015
131 2 42.315 26.195 2.015
132 1 46.345 26.195 2.015
133 1 50.375 26.195 2.015
134 2 54.405 26.195 2.015
135 1 58.435 26.195 2.015
136 2 62.465 26.195 2.015
137 2 66.495 26.195 2.015
138 1 70.525 26.195 2.015
139 1 74.555 26.195 2.015
140 2 78.585 26.195 2.015
141 1 2.015 30.225 2.015
142 1 6.045 30.225 2.015
143 2 10.075 30.225 2.015
144 1 14.105 30.225 2.015
145 1 18.135 30.225 2.015
146 2 22.165 30.225 2.015
147 2 26.195 30.225 2.015
148 1 30.225 30.225 2.015
149 2 34.255 30.225 2.015
150 1 38.285 30.225 2.015
151 1 42.315 30.225 2.015
152 1 46.345 30.225 2.015
153 1 50.375 30.225 2.015
154 2 54.405 30.225 2.015
155 2 58.435 30.225 2.015
156 1 62.465 30.225 2.015
157 2 66.495 30.225 2.015
158 1 70.525 30.225 2.015
159 1 74.555 30.225 2.015
160 1 78.585 30.225 2.015
161 2 2.015 34.255 2.015
162 2 6.045 34.255 2.015
163 1 10.075 34.255 2.015
164 2 14.105 34.255 2.015
165 2 18.135 34.255 2.015
166 1 22.165 34.255 2.015
167 1 26.195 34.255 2.015
168 1 30.225 34.255 2.015
169 1 34.255 34.255 2.015
170 1 38.285 34.255 2.015
171 2 42.315 34.255 2.015
172 1 46.345 34.255 2.015
173 1 50.375 34.255 2.015
174 2 54.405 34.255 2.015
175 1 58.435 34.255 2.015
176 1 62.465 34.255 2.015
177 2 66.495 34.255 2.015
178 2 70.525 34.255 2.015
179 2 74.555 34.255 2.015
180 2 78.585 34.255 2.015
181 2 2.015 38.285 2.015
182 2 6.045 38.285 2.015
183 1 10.075 38.285 2.015
184 2 14.105 38.285 2.015
185 1 18.135 38.285 2.015
186 2 22.165 38.285 2.015
187 2 26.195 38.285 2.015
188 1 30.225 38.285 2.015
189 1 34.255 38.285 2.015
190 2 38.285 38.285 2.015
191 1 42.315 38.285 2.015
192 2 46.345 38.285 2.015
193 2 50.375 38.285 2.015
194 2 54.405 38.285 2.015
195 1 58.435 38.285 2.015
196 2 62.465 38.285 2.015
197 2 66.495 38.285 2.015
198 2 70.525 38.285 2.015
199 1 74.555 38.285 2.015
200 2 78.585 38.285 2.015
201 1 2.015 42.315 2.015
202 1 6.045 42.315 2.015
203 2 10.075 42.315 2.015
204 2 14.105 42.315 2.015
205 2 18.135 42.315 2.015
206 1 22.165 42.315 2.015
207 2 26.195 42.315 2.015
208 1 30.225 42.315 2.015
209 1 34.255 42.315 2.015
210 1 38.285 42.315 2.015
211 1 42.315 42.315 2.015
212 2 46.345 42.315 2.015
213 2 50.375 42.315 2.015
214 2 54.405 42.315 2.015
215 2 58.435 42.315 2.015
216 1 62.465 42.315 2.015
217 1 66.495 42.315 2.015
218 2 70.525 42.315 2.015
219 2 74.555 42.315 2.015
220 1 78.585 42.315 2.015
221 1 2.015 46.345 2.015
222 1 6.045 46.345 2.015
223 1 10.075 46.345 2.015
224 1 14.105 46.345 2.015
225 1 18.135 46.345 2.015
226 1 22.165 46.345 2.015
227 1 26.195 46.345 2.015
228 2 30.225 46.345 2.015
229 1 34.255 46.345 2.015
230 1 38.285 46.345 2.015
231 2 42.315 46.345 2.015
232 2 46.345 46.345 2.015
233 1 50.375 46.345 2.015
234 1 54.405 46.345 2.015
235 2 58.435 46.345 2.015
236 1 62.465 46.345 2.015
237 1 66.495 46.345 2.015
238 2 70.525 46.345 2.015
239 1 74.555 46.345 2.015
240 1 78.585 46.345 2.015
241 2 2.015 50.375 2.015
242 1 6.045 50.375 2.015
243 2 10.075 50.375 2.015
244 1 14.105 50.375 2.015
245 2 18.135 50.375 2.015
246 2 22.165 50.375 2.015
247 1 26.195 50.375 2.015
248 1 30.225 50.375 2.015
249 2 34.255 50.375 2.015
250 2 38.285 50.375 2.015
251 1 42.315 50.375 2.015
252 1 46.345 50.375 2.015
253 2 50.375 50.375 2.015
254 2 54.405 50.375 2.015
255 2 58.435 50.375 2.015
256 1 62.465 50.375 2.015
257 2 66.495 50.375 2.015
258 1 70.525 50.375 2.015
259 2 74.555 50.375 2.015
260 2 78.585 50.375 2.015
261 2 2.015 54.405 2.015
262 2 6.045 54.405 2.015
263 1 10.075 54.405 2.015
264 1 14.105 54.405 2.015
265 1 18.135 54.405 2.015
266 2 22.165 54.405 2.015
267 1 26.195 54.405 2.015
268 1 30.225 54.405 2.015
269 2 34.255 54.405 2.015
270 2 38.285 54.405 2.015
271 1 42.315 54.405 2.015
272 2 46.345 54.405 2.015
273 1 50.375 54.405 2.015
274 1 54.405 54.405 2.015
275 1 58.435 54.405 2.015
276 1 62.465 54.405 2.015
277 2 66.495 54.405 2.015
278 1 70.525 54.405 2.015
279 2 74.555 54.405 2.015
280 2 78.585 54.405 2.015
281 2 2.015 58.435 2.015
282 1 6.045 58.435 2.015
283 1 10.075 58.435 2.015
284 2 14.105 58.435 2.015
285 2 18.135 58.435 2.015
286 1 22.165 58.435 2.015
287 2 26.195 58.435 2.015
288 2 30.225 58.435 2.015
289 2 34.255 58.435 2.015
290 1 38.285 58.435 2.015
291 2 42.315 58.435 2.015
292 1 46.345 58.435 2.015
293 1 50.375 58.435 2.015
294 1 54.405 58.435 2.015
295 2 58.435 58.435 2.015
296 1 62.465 58.435 2.015
297 2 66.495 58.435 2.015
298 2 70.525 58.435 2.015
299 2 74.555 58.435 2.015
300 1 78.585 58.435 2.015
301 1 2.015 62.465 2.015
302 2 6.045 62.465 2.015
303 2 10.075 62.465 2.015
304 1 14.105 62.465 2.015
305 2 18.135 62.465 2.015
306 1 22.165 62.465 2.015
307 2 26.195 62.465 2.015
308 2 30.225 62.465 2.015
309 2 34.255 62.465 2.015
310 2 38.285 62.465 2.015
311 2 42.315 62.465 2.015
312 2 46.345 62.465 2.015
313 1 50.375 62.465 2.015
314 2 54.405 62.465 2.015
315 2 58.435 62.465 2.015
316 1 62.465 62.465 2.015
317 2 66.495 62.465 2.015
318 2 70.525 62.465 2.015
319 1 74.555 62.465 2.015
320 1 78.585 62.465 2.015
321 1 2.015 66.495 2.015
322 1 6.045 66.495 2.015
323 2 10.075 66.495 2.015
324 2 14.105 66.495 2.015
325 2 18.135 66.495 2.015
326 1 22.165 66.495 2.015
327 2 26.195 66.495 2.015
328 2 30.225 66.495 2.015
329 2 34.255 66.495 2.015
330 2 38.285 66.495 2.015
331 2 42.315 66.495 2.015
332 2 46.345 66.495 2.015
333 2 50.375 66.495 2.015
334 1 54.405 66.495 2.015
335 2 58.435 66.495 2.015
336 1 62.465 66.495 2.015
337 1 66.495 66.495 2.015
338 2 70.525 66.495 2.015
339 2 74.555 66.495 2.015
340 2 78.585 66.495 2.015
341 2 2.015 70.525 2.015
342 1 6.045 70.525 2.015
343 2 10.075 70.525 2.015
344 2 14.105 70.525 2.015
345 2 18.135 70.525 2.015
346 1 22.165 70.525 2.015
347 1 26.195 70.525 2.015
348 2 30.225 70.525 2.015
349 1 34.255 70.525 2.015
350 1 38.285 70.525 2.015
351 1 42.315 70.525 2.015
352 2 46.345 70.525 2.015
353 2 50.375 70.525 2.015
354 2 54.405 70.525 2.015
355 1 58.435 70.525 2.015
356 1 62.465 70.525 2.015
357 2 66.495 70.525 2.015
358 2 70.525 70.525 2.015
359 1 74.555 70.525 2.015
360 2 78.585 70.525 2.015
361 2 2.015 74.555 2.015
362 2 6.045 74.555 2.015
363 2 10.075 74.555 2.015
364 1 14.105 74.555 2.015
365 1 18.135 74.555 2.015
366 1 22.165 74.555 2.015
367 2 26.195 74.555 2.015
368 1 30.225 74.555 2.015
369 2 34.255 74.555 2.015
370 2 38.285 74.555 2.015
371 1 42.315 74.555 2.015
372 1 46.345 74.555 2.015
373 1 50.375 74.555 2.015
374 2 54.405 74.555 2.015
375 1 58.435 74.555 2.015
376 1 62.465 74.555 2.015
377 1 66.495 74.555 2.015
378 2 70.525 74.555 2.015
379 1 74.555 74.555 2.015
380 1 78.585 74.555 2.015
381 1 2.015 78.585 2.015
382 1 6.045 78.585 2.015
383 2 10.075 78.585 2.015
384 1 14.105 78.585 2.015
385 2 18.135 78.585 2.015
386 2 22.165 78.585 2.015
387 2 26.195 78.585 2.015
388 1 30.225 78.585 2.015
389 2 34.255 78.585 2.015
390 2 38.285 78.585 2.015
391 1 42.315 78.585 2.015
392 2 46.345 78.585 2.015
393 1 50.375 78.585 2.015
394 1 54.405 78.585 2.015
395 2 58.435 78.585 2.015
396 1 62.465 78.585 2.015
397 2 66.495 78.585 2.015
398 2 70.525 78.585 2.015
399 1 74.555 78.585 2.015
400 1 78.585 78.585 2.015
401 1 2.015 2.015 6.045
402 2 6.045 2.015 6.045
403 2 10.075 2.015 6.045
404 1 14.105 2.015 6.045
405 2 18.135 2.015 6.045
406 1 22.165 2.015 6.045
407 2 26.195 2.015 6.045
408 1 30.225 2.015 6.045
409 2 34.255 2.015 6.045
410 2 38.285 2.015 6.045
411 1 42.315 2.015 6.045
412 1 46.345 2.015 6.045
413 2 50.375 2.015 6.045
414 1 54.405 2.015 6.045
415 1 58.435 2.015 6.045
416 2 62.465 2.015 6.045
417 1 66.495 2.015 6.045
418 2 70.525 2.015 6.045
419 2 74.555 2.015 6.045
420 1 78.585 2.015 6.045
421 1 2.015 6.045 6.045
422 1 6.045 6.045 6.045
423 1 10.075 6.045 6.045
424 1 14.105 6.045 6.045
425 1 18.135 6.045 6.045
426 1 22.165 6.045 6.045
427 2 26.195 6.045 6.045
428 2 30.225 6.045 6.045
429 1 34.255 6.045 6.045
430 1 38.285 6.045 6.045
431 2 42.315 6.045 6.045
432 1 46.345 6.045 6.045
433 1 50.375 6.045 6.045
434 1 54.405 6.045 6.045
435 2 58.435 6.045 6.045
436 2 62.465 6.045 6.045
437 1 66.495 6.045 6.045
438 2 70.525 6.045 6.045
439 1 74.555 6.045 6.045
440 2 78.585 6.045 6.045
441 2 2.015 10.075 6.045
442 1 6.045 10.075 6.045
443 2 10.075 10.075 6.045
444 1 14.105 10.075 6.045
445 2 18.135 10.075 6.045
446 1 22.165 10.075 6.045
447 2 26.195 10.075 6.045
448 1 30.225 10.075 6.045
449 2 34.255 10.075 6.045
450 2 38.285 10.075 6.045
451 2 42.315 10.075 6.045
452 1 46.345 10.075 6.045
453 2 50.375 10.075 6.045
454 1 54.405 10.075 6.045
455 2 58.435 10.075 6.045
456 1 62.465 10.075 6.045
457 1 66.495 10.075 6.045
458 1 70.525 10.075 6.045
459 2 74.555 10.075 6.045
460 1 78.585 10.075 6.045
461 2 2.015 14.105 6.045
462 1 6.045 14.105 6.045
463 2 10.075 14.105 6.045
464 1 14.105 14.105 6.045
465 1 18.135 14.105 6.045
466 1 22.165 14.105 6.045
467 2 26.195 14.105 6.045
468 2 30.225 14.105 6.045
469 1 34.255 14.105 6.045
470 2 38.285 14.105 6.045
471 2 42.315 14.105 6.045
472 1 46.345 14.105 6.045
473 2 50.375 14.105 6.045
474 1 54.405 14.105 6.045
475 2 58.435 14.105 6.045
476 2 62.465 14.105 6.045
477 2 66.495 14.105 6.045
478 2 70.525 14.105 6.045
479 2 74.555 14.105 6.045
480 2 78.585 14.105 6.045
481 2 2.015 18.135 6.045
482 1 6.045 18.135 6.045
483 2 10.075 18.135 6.045
484 2 14.105 18.135 6.045
485 2 18.135 18.135 6.045
486 2 22.165 18.135 6.045
487 2 26.195 18.135 6.045
488 1 30.225 18.135 6.045
489 2 34.255 18.135 6.045
490 2 38.285 18.135 6.045
491 2 42.315 18.135 6.045
492 1 46.345 18.135 6.045
493 1 50.375 18.135 6.045
494 1 54.405 18.135 6.045
495 2 58.435 18.135 6.045
496 2 62.465 18.135 6.045
497 1 66.495 18.135 6.045
498 2 70.525 18.135 6.045
499 2 74.555 18.135 6.045
500 1 78.585 18.135 6.045
501 1 2.015 22.165 6.045
502 1 6.045 22.165 6.045
503 1 10.075 22.165 6.045
504 2 14.105 22.165 6.045
505 1 18.135 22.165 6.045
506 1 22.165 22.165 6.045
507 2 26.195 22.165 6.045
508 1 30.225 22.165 6.045
509 2 34.255 22.165 6.045
510 2 38.285 22.165 6.045
511 2 42.315 22.165 6.045
512 2 46.345 22.165 6.045
513 2 50.375 22.165 6.045
514 2 54.405 22.165 6.045
515 1 58.435 22.165 6.045
516 1 62.465 22.165 6.045
517 2 66.495 22.165 6.045
518 2 70.525 22.165 6.045
519 2 74.555 22.165 6.045
520 1 78.585 22.165 6.045
521 1 2.015 26.195 6.045
522 1 6.045 26.195 6.045
523 1 10.075 26.195 6.045
524 1 14.105 26.195 6.045
525 2 18.135 26.195 6.045
526 2 22.165 26.195 6.045
527 2 26.195 26.195 6.045
528 2 30.225 26.195 6.045
529 2 34.255 26.195 6.045
530 1 38.285 26.195 6.045
531 2 42.315 26.195 6.045
532 2 46.345 26.195 6.045
533 1 50.375 26.195 6.045
534 1 54.405 26.195 6.045
535 2 58.435 26.195 6.045
536 2 62.465 26.195 6.045
537 1 66.495 26.195 6.045
538 2 70.525 26.195 6.045
539 1 74.555 26.195 6.045
540 1 78.585 26.195 6.045
541 2 2.015 30.225 6.045
542 2 6.045 30.225 6.045
543 2 10.075 30.225 6.045
544 2 14.105 30.225 6.045
545 2 18.135 30.225 6.045
546 2 22.165 30.225 6.045
547 1 26.195 30.225 6.045
548 1 30.225 30.225 6.045
549 2 34.255 30.225 6.045
550 2 38.285 30.225 6.045
551 2 42.315 30.225 6.045
552 1 46.345 30.225 6.045
553 1 50.375 30.225 6.045
554 1 54.405 30.225 6.045
555 1 58.435 30.225 6.045
556 2 62.465 30.225 6.045
557 1 66.495 30.225 6.045
558 1 70.525 30.225 6.045
559 1 74.555 30.225 6.045
560 1 78.585 30.225 6.045
561 1 2.015 34.255 6.045
562 2 6.045 34.255 6.045
563 2 10.075 34.255 6.045
564 2 14.105 34.255 6.045
565 2 18.135 34.255 6.045
566 1 22.165 34.255 6.045
567 2 26.195 34.255 6.045
568 1 30.225 34.255 6.045
569 1 34.255 34.255 6.045
570 1 38.285 34.255 6.045
571 1 42.315 34.255 6.045
572 1 46.345 34.255 6.045
573 1 50.375 34.255 6.045
574 2 54.405 34.255 6.045
575 2 58.435 34.255 6.045
576 2 62.465 34.255 6.045
577 1 66.495 34.255 6.045
578 2 70.525 34.255 6.045
579 2 74.555 34.255 6.045
580 2 78.585 34.255 6.045
581 1 2.015 38.285 6.045
582 2 6.045 38.285 6.045
583 2 10.075 38.285 6.045
584 2 14.105 38.285 6.045
585 1 18.135 38.285 6.045
586 1 22.165 38.285 6.045
587 2 26.195 38.285 6.045
588 1 30.225 38.285 6.045
589 2 34.255 38.285 6.045
590 1 38.285 38.285 6.045
591 2 42.315 38.285 6.045
592 1 46.345 38.285 6.045
593 1 50.375 38.285 6.045
594 2 54.405 38.285 6.045
595 1 58.435 38.285 6.045
596 1 62.465 38.285 6.045
597 2 66.495 38.285 6.045
598 1 70.525 38.285 6.045
599 1 74.555 38.285 6.045
600 2 78.585 38.285 6.045
601 1 2.015 42.315 6.045
602 2 6.045 42.315 6.045
603 1 10.075 42.315 6.045
604 1 14.105 42.315 6.045
605 2 18.135 42.315 6.045
606 1 22.165 42.315 6.045
607 2 26.195 42.315 6.045
608 2 30.225 42.315 6.045
609 2 34.255 42.315 6.045
610 2 38.285 42.315 6.045
611 2 42.315 42.315 6.045
612 1 46.345 42.315 6.045
613 2 50.375 42.315 6.045
614 1 54.405 42.315 6.045
615 1 58.435 42.315 6.045
616 2 62.465 42.315 6.045
617 1 66.495 42.315 6.045
618 1 70.525 42.315 6.045
619 1 74.555 42.315 6.045
620 1 78.585 42.315 6.045
621 1 2.015 46.345 6.045
622 2 6.045 46.345 6.045
623 2 10.075 46.345 6.045
624 2 14.105 46.345 6.045
625 2 18.135 46.345 6.045
626 2 22.165 46.345 6.045
627 1 26.195 46.345 6.045
628 2 30.225 46.345 6.045
629 2 34.255 46.345 6.045
630 2 38.285 46.345 6.045
631 2 42.315 46.345 6.045
632 1 46.345 46.345 6.045
633 2 50.375 46.345 6.045
634 2 54.405 46.345 6.045
635 2 58.435 46.345 6.045
636 1 62.465 46.345 6.045
637 2 66.495 46.345 6.045
638 2 70.525 46.345 6.045
639 1 74.555 46.345 6.045
640 1 78.585 46.345 6.045
641 2 2.015 50.375 6.045
642 2 6.045 50.375 6.045
643 2 10.075 50.375 6.045
644 2 14.105 50.375 6.045
645 1 18.135 50.375 6.045
646 1 22.165 50.375 6.045
647 1 26.195 50.375 6.045
648 2 30.225 50.375 6.045
649 2 34.255 50.375 6.045
650 2 38.285 50.375 6.045
651 1 42.315 50.375 6.045
652 2 46.345 50.375 6.045
653 1 50.375 50.375 6.045
654 1 54.405 50.375 6.045
655 2 58.435 50.375 6.045
656 2 62.465 50.375 6.045
657 1 66.495 50.375 6.045
658 2 70.525 50.375 6.045
659 2 74.555 50.375 6.045
660 1 78.585 50.375 6.045
661 1 2.015 54.405 6.045
662 1 6.045 54.405 6.045
663 2 10.075 54.405 6.045
664 2 14.105 54.405 6.045
665 2 18.135 54.405 6.045
666 2 22.165 54.405 6.045
667 2 26.195 54.405 6.045
668 2 30.225 54.405 6.045
669 2 34.255 54.405 6.045
670 2 38.285 54.405 6.045
671 1 42.315 54.405 6.045
672 2 46.345 54.405 6.045
673 1 50.375 54.405 6.045
674 2 54.405 54.405 6.045
675 2 58.435 54.405 6.045
676 1 62.465 54.405 6.045
677 1 66.495 54.405 6.045
678 1 70.525 54.405 6.045
679 2 74.555 54.405 6.045
680 2 78.585 54.405 6.045
681 2 2.015 58.435 6.045
682 1 6.045 58.435 6.045
683 1 10.075 58.435 6.045
684 2 14.105 58.435 6.045
685 1 18.135 58.435 6.045
686 1 22.165 58.435 6.045
687 1 26.195 58.435 6.045
688 2 30.225 58.435 6.045
689 2 34.255 58.435 6.045
690 1 38.285 58.435 6.045
691 1 42.315 58.435 6.045
692 2 46.345 58.435 6.045
693 1 50.375 58.435 6.045
694 1 54.405 58.435 6.045
695 2 58.435 58.435 6.045
696 1 62.465 58.435 6.045
697 2 66.495 58.435 6.045
698 1 70.525 58.435 6.045
699 2 74.555 58.435 6.045
700 1 78.585 58.435 6.045
701 2 2.015 62.465 6.045
702 2 6.045 62.465 6.045
703 2 10.075 62.465 6.045
704 1 14.105 62.465 6.045
705 2 18.135 62.465 6.045
706 1 22.165 62.465 6.045
707 1 26.195 62.465 6.045
708 1 30.225 62.465 6.045
709 1 34.255 62.465 6.045
710 2 38.285 62.465 6.045
711 2 42.315 62.465 6.045
712 2 46.345 62.465 6.045
713 1 50.375 62.465 6.045
714 1 54.405 62.465 6.045
715 1 58.435 62.465 6.045
716 1 62.465 62.465 6.045
717 1 66.495 62.465 6.045
718 1 70.525 62.465 6.045
719 1 74.555 62.465 6.045
720 1 78.585 62.465 6.045
721 1 2.015 66.495 6.045
722 2 6.045 66.495 6.045
723 1 10.075 66.495 6.045
724 2 14.105 66.495 6.045
725 2 18.135 66.495 6.045
726 1 22.165 66.495 6.045
727 1 26.195 66.495 6.045
728 1 30.225 66.495 6.045
729 1 34.255 66.495 6.045
730 1 38.285 66.495 6.045
731 2 42.315 66.495 6.045
732 1 46.345 66.495 6.045
733 1 50.375 66.495 6.045
734 1 54.405 66.495 6.045
735 2 58.435 66.495 6.045
736 1 62.465 66.495 6.045
737 2 66.495 66.495 6.045
738 1 70.525 66.495 6.045
739 1 74.555 66.495 6.045
740 2 78.585 66.495 6.045
741 1 2.015 70.525 6.045
742 1 6.045 70.525 6.045
743 1 10.075 70.525 6.045
744 1 14.105 70.525 6.045
745 1 18.135 70.525 6.045
746 2 22.165 70.525 6.045
747 2 26.195 70.525 6.045
748 1 30.225 70.525 6.045
749 1 34.255 70.525 6.045
750 2 38.285 70.525 6.045
751 1 42.315 70.525 6.045
752 2 46.345 70.525 6.045
753 2 50.375 70.525 6.045
754 2 54.405 70.525 6.045
755 2 58.435 70.525 6.045
756 1 62.465 70.525 6.045
757 2 66.495 70.525 6.045
758 1 70.525 70.525 6.045
759 2 74.555 70.525 6.045
760 1 78.585 70.525 6.045
761 1 2.015 74.555 6.045
762 1 6.045 74.555 6.045
763 2 10.075 74.555 6.045
764 1 14.105 74.555 6.045
765 1 18.135 74.555 6.045
766 2 22.165 74.555 6.045
767 1 26.195 74.555 6.045
768 1 30.225 74.555 6.045
769 1 34.255 74.555 6.045
770 1 38.285 74.555 6.045
771 1 42.315 74.555 6.045
772 2 46.345 74.555 6.045
773 2 50.375 74.555 6.045
774 2 54.405 74.555 6.045
775 2 58.435 74.555 6.045
776 2 62.465 74.555 6.045
777 1 66.495 74.555 6.045
778 1 70.525 74.555 6.045
779 1 74.555 74.555 6.045
780 1 78.585 74.555 6.045
781 1 2.015 78.585 6.045
782 2 6.045 78.585 6.045
783 1 10.075 78.585 6.045
784 2 14.105 78.585 6.045
785 1 18.135 78.585 6.045
786 1 22.165 78.585 6.045
787 2 26.195 78.585 6.045
788 2 30.225 78.585 6.045
789 2 34.255 78.585 6.045
790 1 38.285 78.585 6.045
791 2 42.315 78.585 6.045
792 1 46.345 78.585 6.045
793 1 50.375 78.585 6.045
794 2 54.405 78.585 6.045
795 2 58.435 78.585 6.045
796 1 62.465 78.585 6.045
797 2 66.495 78.585 6.045
798 2 70.525 78.585 6.045
799 2 74.555 78.585 6.045
800 1 78.585 78.585 6.045
801 1 2.015 2.015 10.075
802 2 6.045 2.015 10.075
803 1 10.075 2.015 10.075
804 2 14.105 2.015 10.075
805 2 18.135 2.015 10.075
806 2 22.165 2.015 10.075
807 1 26.195 2.015 10.075
808 2 30.225 2.015 10.075
809 1 34.255 2.015 10.075
810 2 38.285 2.015 10.075
811 2 42.315 2.015 10.075
812 2 46.345 2.015 10.075
813 1 50.375 2.015 10.075
814 1 54.405 2.015 10.075
815 2 58.435 2.015 10.075
816 1 62.465 2.015 10.075
817 1 66.495 2.015 10.075
818 1 70.525 2.015 10.075
819 1 74.555 2.015 10.075
820 1 78.585 2.015 10.075
821 2 2.015 6.045 10.075
822 2 6.045 6.045 10.075
823 1 10.075 6.045 10.075
824 1 14.105 6.045 10.075
825 1 18.135 6.045 10.075
826 1 22.165 6.045 10.075
827 1 26.195 6.045 10.075
828 2 30.225 6.045 10.075
829 1 34.255 6.045 10.075
830 1 38.285 6.045 10.075
831 1 42.315 6.045 10.075
832 1 46.345 6.045 10.075
833 2 50.375 6.045 10.075
834 2 54.405 6.045 10.075
835 2 58.435 6.045 10.075
836 1 62.465 6.045 10.075
837 1 66.495 6.045 10.075
838 1 70.525 6.045 10.075
839 1 74.555 6.045 10.075
840 2 78.585 6.045 10.075
841 1 2.015 10.075 10.075
842 2 6.045 10.075 10.075
843 2 10.075 10.075 10.075
844 1 14.105 10.075 10.075
845 2 18.135 10.075 10.075
846 1 22.165 10.075 10.075
847 2 26.195 10.075 10.075
848 1 30.225 10.075 10.075
849 2 34.255 10.075 10.075
850 1 38.285 10.075 10.075
851 1 42.315 10.075 10.075
852 2 46.345 10.075 10.075
853 1 50.375 10.075 10.075
854 1 54.405 10.075 10.075
855 1 58.435 10.075 10.075
856 1 62.465 10.075 10.075
857 1 66.495 10.075 10.075
858 1 70.525 10.075 10.075
859 2 74.555 10.075 10.075
860 2 78.585 10.075 10.075
861 1 2.015 14.105 10.075
862 2 6.045 14.105 10.075
863 1 10.075 14.105 10.075
864 1 14.105 14.105 10.075
865 2 18.135 14.105 10.075
866 2 22.165 14.105 10.075
867 1 26.195 14.105 10.075
868 1 30.225 14.105 10.075
869 2 34.255 14.105 10.075
870 1 38.285 14.105 10.075
871 1 42.315 14.105 10.075
872 2 46.345 14.105 10.075
873 1 50.375 14.105 10.075
874 1 54.405 14.105 10.075
875 2 58.435 14.105 10.075
876 2 62.465 14.105 10.075
877 2 66.495 14.105 10.075
878 1 70.525 14.105 10.075
879 2 74.555 14.105 10.075
880 1 78.585 14.105 10.075
881 2 2.015 18.135 10.075
882 1 6.045 18.135 10.075
883 2 10.075 18.135 10.075
884 2 14.105 18.135 10.075
885 2 18.135 18.135 10.075
886 2 22.165 18.135 10.075
887 2 26.195 18.135 10.075
888 1 30.225 18.135 10.075
889 1 34.255 18.135 10.075
890 2 38.285 18.135 10.075
891 1 42.315 18.135 10.075
892 1 46.345 18.135 10.075
893 2 50.375 18.135 10.075
894 2 54.405 18.135 10.075
895 1 58.435 18.135 10.075
896 1 62.465 18.135 10.075
897 1 66.495 18.135 10.075
898 1 70.525 18.135 10.075
899 2 74.555 18.135 10.075
900 2 78.585 18.135 10.075
901 1 2.015 22.165 10.075
902 2 6.045 22.165 10.075
903 2 10.075 22.165 10.075
904 2 14.105 22.165 10.075
905 1 18.135 22.165 10.075
906 2 22.165 22.165 10.075
907 1 26.195 22.165 10.075
908 2 30.225 22.165 10.075
909 2 34.255 22.165 10.075
910 1 38.285 22.165 10.075
911 1 42.315 22.165 10.075
912 1 46.345 22.165 10.075
913 1 50.375 22.165 10.075
914 1 54.405 22.165 10.075
915 1 58.435 22.165 10.075
916 2 62.465 22.165 10.075
917 1 66.495 22.165 10.075
918 2 70.525 22.165 10.075
919 1 74.555 22.165 10.075
920 1 78.585 22.165 10.075
921 1 2.015 26.195 10.075
922 2 6.045 26.195 10.075
923 1 10.075 26.195 10.075
924 1 14.105 26.195 10.075
925 2 18.135 26.195 10.075
926 2 22.165 26.195 10.075
927 1 26.195 26.195 10.075
928 2 30.225 26.195 10.075
929 1 34.255 26.195 10.075
930 1 38.285 26.195 10.075
931 1 42.315 26.195 10.075
932 2 46.345 26.195 10.075
933 1 50.375 26.195 10.075
934 2 54.405 26.195 10.075
935 1 58.435 26.195 10.075
936 1 62.465 26.195 10.075
937 2 66.495 26.195 10.075
938 1 70.525 26.195 10.075
939 1 74.555 26.195 10.075
940 1 78.585 26.195 10.075
941 1 2.015 30.225 10.075
942 1 6.045 30.225 10.075
943 1 10.075 30.225 10.075
944 1 14.105 30.225 10.075
945 2 18.135 30.225 10.075
946 1 22.165 30.225 10.075
947 1 26.195 30.225 10.075
948 2 30.225 30.225 10.075
949 2 34.255 30.225 10.075
950 2 38.285 30.225 10.075
951 1 42.315 30.225 10.075
952 1 46.345 30.225 10.075
953 2 50.375 30.225 10.075
954 2 54.405 30.225 10.075
955 2 58.435 30.225 10.075
956 2 62.465 30.225 10.075
957 1 66.495 30.225 10.075
958 2 70.525 30.225 10.075
959 2 74.555 30.225 10.075
960 1 78.585 30.225 10.075
961 2 2.015 34.255 10.075
962 2 6.045 34.255 10.075
963 2 10.075 34.255 10.075
964 1 14.105 34.255 10.075
965 1 18.135 34.255 10.075
966 2 22.165 34.255 10.075
967 2 26.195 34.255 10.075
968 1 30.225 34.255 10.075
969 1 34.255 34.255 10.075
970 1 38.285 34.255 10.075
971 1 42.315 34.255 10.075
972 1 46.345 34.255 10.075
973 2 50.375 34.255 10.075
974 2 54.405 34.255 10.075
975 1 58.435 34.255 10.075
976 2 62.465 34.255 10.075
977 1 66.495 34.255 10.075
978 2 70.525 34.255 10.075
979 1 74.555 34.255 10.075
980 1 78.585 34.255 10.075
981 1 2.015 38.285 10.075
982 1 6.045 38.285 10.075
983 1 10.075 38.285 10.075
984 1 14.105 38.285 10.075
985 2 18.135 38.285 10.075
986 1 22.165 38.285 10.075
987 2 26.195 38.285 10.075
988 2 30.225 38.285 10.075
989 2 34.255 38.285 10.075
990 1 38.285 38.285 10.075
991 2 42.315 38.285 10.075
992 1 46.345 38.285 10.075
993 2 50.375 38.285 10.075
994 1 54.405 38.285 10.075
995 1 58.435 38.285 10.075
996 1 62.465 38.285 10.075
997 1 66.495 38.285 10.075
998 1 70.525 38.285 10.075
999 2 74.555 38.285 10.075
1000 2 78.585 38.285 10.075
1001 2 2.015 42.315 10.075
1002 2 6.045 42.315 10.075
1003 1 10.075 42.315 10.075
1004 2 14.105 42.315 10.075
1005 2 18.135 42.315 10.075
1006 2 22.165 42.315 10.075
1007 1 26.195 42.315 10.075
1008 1 30.225 42.315 10.075
1009 2 34.255 42.315 10.075
1010 1 38.285 42.315 10.075
1011 1 42.315 42.315 10.075
1012 1 46.345 42.315 10.075
1013 2 50.375 42.315 10.075
1014 1 54.405 42.315 10.075
1015 1 58.435 42.315 10.075
1016 1 62.465 42.315 10.075
1017 2 66.495 42.315 10.075
1018 2 70.525 42.315 10.075
1019 1 74.555 42.315 10.075
1020 1 78.585 42.315 10.075
1021 1 2.015 46.345 10.075
1022 1 6.045 46.345 10.075
1023 2 10.075 46.345 10.075
1024 2 14.105 46.345 10.075
1025 2 18.135 46.345 10.075
1026 1 22.165 46.345 10.075
1027 1 26.195 46.345 10.075
1028 1 30.225 46.345 10.075
1029 2 34.255 46.345 10.075
1030 1 38.285 46.345 10.075
1031 1 42.315 46.345 10.075
1032 2 46.345 46.345 10.075
1033 2 50.375 46.345 10.075
1034 1 54.405 46.345 10.075
1035 2 58.435 46.345 10.075
1036 2 62.465 46.345 10.075
1037 1 66.495 46.345 10.075
1038 1 70.525 46.345 10.075
1039 1 74.555 46.345 10.075
1040 2 78.585 46.345 10.075
1041 1 2.015 50.375 10.075
1042 1 6.045 50.375 10.075
1043 2 10.075 50.375 10.075
1044 1 14.105 50.375 10.075
1045 2 18.135 50.375 10.075
1046 1 22.165 50.375 10.075
1047 2 26.195 50.375 10.075
1048 2 30.225 50.375 10.075
1049 2 34.255 50.375 10.075
1050 2 38.285 50.375 10.075
1051 2 42.315 50.375 10.075
1052 2 46.345 50.375 10.075
1053 1 50.375 50.375 10.075
1054 1 54.405 50.375 10.075
1055 2 58.435 50.375 10.075
1056 2 62.465 50.375 10.075
1057 2 66.495 50.375 10.075
1058 2 70.525 50.375 10.075
1059 2 74.555 50.375 10.075
1060 1 78.585 50.375 10.075
1061 2 2.015 54.405 10.075
1062 2 6.045 54.405 10.075
1063 1 10.075 54.405 10.075
1064 1 14.105 54.405 10.075
1065 1 18.135 54.405 10.075
1066 2 22.165 54.405 10.075
1067 2 26.195 54.405 10.075
1068 2 30.225 54.405 10.075
1069 1 34.255 54.405 10.075
1070 2 38.285 54.405 10.075
1071 1 42.315 54.405 10.075
1072 2 46.345 54.405 10.075
1073 1 50.375 54.405 10.075
1074 1 54.405 54.405 10.075
1075 1 58.435 54.405 10.075
1076 1 62.465 54.405 10.075
1077 1 66.495 54.405 10.075
1078 1 70.525 54.405 10.075
1079 1 74.555 54.405 10.075
1080 1 78.585 54.405 10.075
1081 1 2.015 58.435 10.075
1082 1 6.045 58.435 10.075
1083 2 10.075 58.435 10.075
1084 1 14.105 58.435 10.075
1085 2 18.135 58.435 10.075
1086 2 22.165 58.435 10.075
1087 1 26.195 58.435 10.075
1088 1 30.225 58.435 10.075
1089 1 34.255 58.435 10.075
1090 2 38.285 58.435 10.075
1091 1 42.315 58.435 10.075
1092 2 46.345 58.435 10.075
1093 2 50.375 58.435 10.075
1094 2 54.405 58.435 10.075
1095 2 58.435 58.435 10.075
1096 1 62.465 58.435 10.075
1097 2 66.495 58.435 10.075
1098 1 70.525 58.435 10.075
1099 2 74.555 58.435 10.075
1100 1 78.585 58.435 10.075