75
Lattice="5.66140527 -0.0 0.0 -2.83070264 4.90292079 0.70514462 -0.05661405 0.09805842 35.25723103" Properties=species:S:1:pos:R:3:forces:R:3 virial="71.29707152135376 -2.1541286230196146 2.7908398198791238 -2.1541286230196146 65.26498726894944 -87.75678440266708 2.7908398198791238 -87.75678440266708 62.885364091187775" config_type=perturb dataset=0.4 energy=-602.23732956 pbc="T T T"
Zr       0.00757846       3.28314453       9.97606562      -0.33429230       1.33185621       0.02189243
Zr       0.02650895       0.01680008       0.15016633      -1.30339750       0.62761318       0.55514910
Zr       0.02178078       3.24992822       3.11485836      -0.60834093       1.67967466      -1.14640755
Zr       2.77044080       4.94297681      21.92648980       0.82143020       1.19828367       0.64776567
Zr       2.82151201       1.67396799      12.14446317      -0.20761401       0.81757668       1.13650555
Zr      -0.01012263       0.06190934      14.36013932      -0.53572939       0.66193912       0.50077912
Zr       2.75566862       1.75069350      33.21539674       0.80971176       0.62859129       0.78533266
Zr      -0.02089725       3.35942924      24.17606452      -0.80378134       0.41901969       0.52961126
Zr       2.80074558       1.72159329      26.37258276      -0.55218434       0.93092848       0.69069472
Ti       2.83943774       1.63173811       5.22839565      -0.12187686       0.82514732       0.55607943
Ti      -2.81791717       4.90137965       7.92875840      -0.31655212       1.59704942       0.08578518
Ti      -0.02533105       3.30855155      17.22548938      -0.17461075       1.16534181      -0.41091857
Ti       2.77404317       1.70487138      19.20453969       0.31769506       1.36034636       0.17672069
Ti       2.77756549       4.98029395      29.16881289       0.41818247       0.55732738       0.53187506
Ti      -0.03954090       3.33782955      31.17396384      -0.24363902       1.98362077      -0.08779957
Pb       2.83295679       1.63808013       2.05407355       0.13122270       0.77646893      -1.23557529
Pb       0.00542112       0.02583420       4.06938956      -0.04595425       0.18638663      -0.44649638
Pb      -0.00948240       3.29406372       6.68585209       0.10134696       0.08017804      -0.26253163
Pb       2.83180670       1.67141622       8.84877840       0.04189119       0.25080739      -0.41781672
Pb       5.63827506       0.03507202      11.07218248       0.05478486       0.21565862      -0.20277665
Pb      -0.02784690       3.33085911      14.02137954       0.03039930       0.55587731      -0.47887648
Pb       2.80497523       1.66815565      16.07907721       0.01725727       0.60245791      -1.04433458
Pb       5.61365927       0.07291217      17.95367918      -0.03937368       0.16827678      -0.45524907
Pb      -0.06044270       3.32299832      20.84827731      -0.07012056       0.41281387      -0.40782147
Pb       2.77242894       1.67114537      23.04875120       0.02183353       0.71215856      -0.51956936
Pb       5.59414773       0.07655488      25.30068248       0.16339043       0.64461163      -0.68930581
Pb      -0.03787099       3.37440843      28.06893120      -0.02669238       0.32100502      -0.66988089
Pb       2.80679726       1.72227052      29.97861183       0.02238404       0.09949739      -0.56601835
Pb      -0.02927633       0.09069456      32.10932467      -0.13601832       0.42579342      -0.42009857
Pb      -0.07304619       3.33747598      35.08372606       0.03510945       0.89721848      -0.85801185
O        2.84439176       0.09130990       3.61320516      -0.11901929      -0.86623452       0.74049464
O        2.79786720       3.31166444       6.35640093       0.09043663      -0.94656475      -0.04882656
O        0.00344923       1.67678456       8.31555788       0.02987742      -0.72596079       0.31908566
O        2.81522133       0.07832205      10.51003331       0.00482064      -0.48362209       0.10494673
O       -0.03141862       1.70121374       1.41142842       0.10717300      -0.84585440       0.89963933
O        4.17689726       2.38564383       3.98902324      -1.23971471      -0.35784393       0.25497466
O        1.35860619       0.80748313       5.99594667       0.11145173      -0.04347088      -0.38290753
O        1.39556928       4.13538043       8.68711456      -0.21444001      -0.32394827      -0.01365160
O        4.14917115       2.47293551      10.85051113      -0.24131005      -0.25405721      -0.41770223
O        1.32829060       4.04505697       1.74265158      -0.53804891      -0.42292513       0.14842300
O        1.49392037       2.43400411       3.99741711       1.71092240      -0.87598607       0.60006520
O        4.28209039       0.80840680       5.98467977       0.06924170      -0.13128500      -0.09659211
O       -1.42785330       4.08564725       8.67703352       0.35196488      -0.39803797       0.07671023
O        1.47938127       2.47100652      10.87173694       0.38496282      -0.33164919      -0.36001629
O       -1.36829188       4.03015564       1.73995091       1.32487273      -0.88575093       0.82744715
O       -0.01330072       1.77200576      15.62926864      -0.05284267      -0.83590056       0.26313999
O        2.79912943       0.06933545      17.61268408      -0.02096617      -0.96188499       0.33744515
O        2.79971064       3.33811300      20.28658116       0.00428179      -0.53450107       0.41103180
O       -0.01145716       1.77930242      22.50346286       0.02014317      -1.22211232       0.03498257
O        2.83206733       3.37370997      13.42554502      -0.06309151      -0.69606963       0.02399377
O        1.31491981       4.07437266      15.95798855      -1.05038510      -0.28278919       0.19382642
O        4.18810012       2.47371761      17.96549998      -0.31431462      -0.25225342       0.02308920
O        1.40046873       0.88322226      19.98425749      -0.55299453      -0.39294843      -0.01077023
O        1.29027623       4.13303334      22.82134720      -0.47995544      -0.38668121       0.19586712
O        1.31545331       0.80578321      13.02575961      -0.34066454      -0.20914390      -0.25139494
O       -1.37051512       4.09003306      15.94941557       1.54059524      -0.70396132       0.59982780
O        1.42777381       2.48929093      17.95680593       0.45602805      -0.41014268       0.22261824
O        4.18401288       0.85720353      19.95621390       0.41272099      -0.26323189      -0.03713125
O       -1.35899152       4.08833404      22.81715326      -0.28097977       0.06241430      -0.42542689
O        4.29760149       0.81652293      13.02844222       0.78834234      -0.55940097       0.03698889
O        2.76196185       3.46472675      27.64162709       0.03329006      -1.35713972      -0.01061573
O       -0.04317227       1.71479015      29.59136294      -0.02294010      -0.66834583       0.24586480
O       -0.05304489       4.97700827      32.28633936       0.00855918      -0.35008060       0.27039445
O        2.80288226       3.42079923      34.46523483      -0.11032544      -0.71666389       0.23018246
O        2.76151126       0.17234356      24.67885511       0.04189241      -1.08165743       0.45919339
O        1.26606986       0.82257449      27.20794795      -0.73092043      -0.21718090       0.09350784
O        1.31931810       4.15034763      29.94067959      -0.20851727      -0.27142558       0.06339827
O       -1.44727363       2.57142924      31.94594370      -0.86676625      -0.75269565       0.22812810
O        1.28365203       0.85710224      34.10118811       0.00977307      -0.02394031      -0.45968945
O        4.10851301       2.45200186      25.04338028       0.36040002       0.19792918      -0.63361758
O        4.28548412       0.82020589      27.22625197       0.91835442      -0.33782302       0.26310346
O       -1.41747363       4.13463588      29.93350490       0.08744861      -0.12816260      -0.12117409
O        1.34254485       2.53960315      31.96591150       0.54594402      -0.46096419      -0.14344468
O        4.24695489       0.88667130      34.11373312       0.26899261      -0.25658955      -0.36529231
O        1.46057374       2.49466156      25.06013371       0.29924541      -0.16698751      -0.28881892
50
Lattice="28.04284313 0.11201286 0.20542334 0.56085686 5.60064291 0.00410847 -0.06298495 0.0 4.18659584" Properties=species:S:1:pos:R:3:forces:R:3 virial="40.25623700494043 -49.23578509692324 -0.21412239013122403 -49.23578509692324 47.027423882037986 -0.8539398254086585 -0.21412239013122403 -0.8539398254086585 32.507989268884806" config_type=perturb dataset=0.4 energy=-403.62867536 pbc="T T T"
Zr      17.35465161       2.84615989       2.08159230       0.50715386      -0.40833433       0.46531176
Zr      25.84248454       5.67564849       2.17706169       0.29225244      -0.13216581       0.29292225
Zr      14.75568028       5.64076451       2.07174254      -0.83623661       0.30770868       0.67321626
Zr       3.09878909       0.01335998       1.97547852      -0.74756500       0.40686569       0.51389798
Zr      11.54345181       2.85798644       2.07438215       0.93356477      -1.05664860      -0.14087404
Zr       0.45934075       2.78015841       1.98309098      -0.32280356      -0.13038720       0.72141535
Ti      20.42785455       5.66107681       2.18021994      -0.10969803      -0.22383566      -0.24876050
Ti      22.82739364       2.88601387       2.17482990      -0.84194743       0.04785733       0.33858868
Ti       6.11829865       2.83978420       2.03837479       0.65134171      -0.97008693       0.92529118
Ti       8.47842848       0.03527892       2.10409351       0.62726840      -0.45432476      -0.83907971
Pb       0.65623769       5.57258014       0.18267880       0.08071330       0.04155259      -0.43436540
Pb      17.63653294       5.64883201       0.27831153       0.07915878      -0.05885405      -0.40983817
Pb      20.15268267       2.88403614       0.26069739      -0.06771098       0.02785817      -0.33447354
Pb      23.03689671       5.68370746       0.28305586      -0.04596208      -0.00005594      -0.40355962
Pb      25.51615542       2.91042784       0.33052729       0.36182006      -0.28366839      -0.42634608
Pb      14.43692333       2.84410193       0.26125844      -0.24157323      -0.03780785      -0.44587205
Pb       3.32100733       2.83757953       0.18584374      -0.19670931      -0.08413727      -0.64626344
Pb       5.83895985       0.03131554       0.14861007       0.09894978       0.10695980      -0.40236666
Pb       8.77958485       2.82193856       0.17729209       0.17002081      -0.11728481      -0.41907180
Pb      11.77515265       5.61706246       0.21256317       0.55999445       0.00406647      -0.29015534
O       17.43150125       2.88621488       4.04784786       0.00362669       0.05440283       0.30898021
O       20.44367683       5.67333838       3.92099514       0.11498613       0.01462560       0.89813340
O       22.78233302       2.88584493       3.93310183       0.20644484       0.02297216       0.52834385
O       25.82300153       5.67707963       4.14134164       0.08045853      -0.00712104       0.22772540
O       14.74933512       5.63372593       4.04400618       0.10449031       0.07269919       0.06025163
O       16.10738444       4.28315926       1.75800392       0.38389799      -0.02205854      -0.64635904
O       18.69221584       1.39779469       1.79665751      -0.04258031       0.07380381      -0.57864555
O       21.65380787       4.28658856       1.81994439       0.17308191       0.16331042      -0.59832419
O       24.09244997       1.60122075       1.84625988       0.01979159       0.29399789      -0.57554455
O       27.24110001       4.31065253       1.88730157      -0.82531917       1.28966463      -0.73729162
O       15.79656829       1.48101305       1.75571323       0.07510460      -0.03817149       0.38775073
O       18.99821980       4.33349804       1.82203124      -0.36898960      -0.18610019       0.16757173
O       21.37107374       1.50151319       1.81759256       0.15948280      -0.13374252       0.27348972
O       24.29792603       4.23953429       1.84117899       0.31586929       0.19327740       0.37703811
O       26.93513906       1.49948059       1.87824796      -0.36681535      -0.30151502       0.23059832
O        3.12627291       0.01675720       3.94718192       0.16490421      -0.01172395       0.23919855
O        6.14557166       2.84902256       3.83110531       0.03639944      -0.03109796      -0.17899499
O        9.06475126       5.61131697       3.82867880      -0.12245530       0.07752782       1.13559053
O       11.57888879       2.84641071       3.99890320      -0.20784058       0.13522899       0.91737717
O        0.46883962       2.80835561       3.93929299       0.08981017       0.11692208       0.40156324
O        1.77276288       1.41908403       1.66446848       1.02894185      -0.89735905      -0.72510043
O        4.95383468       4.15057559       1.71192249      -0.02688185       0.24781822      -0.69425370
O        7.35161113       1.42480444       1.70421452      -0.37072538       0.40192783      -0.49692566
O       10.34425557       4.33391246       1.73760107      -0.90073466       1.17289046      -0.65140103
O       12.93033311       1.49587110       1.73197837       0.00632812       0.16483735      -0.53433660
O        2.08312090       4.22757697       1.66175610       0.01679225       0.00018537       0.39288460
O        4.64775141       1.50933699       1.69319939       0.19753873      -0.18442954       0.32302858
O        7.65530487       4.20757213       1.68074886      -0.25907894       0.13873563       0.51208638
O       10.03897368       1.36904852       1.71872910      -0.37372936       0.06824483       0.42946798
O       13.21661917       4.21297533       1.78920750      -0.26483109       0.12496966       0.11648011
75
Lattice="5.73896841 -0.0 0.71480534 -2.8694842 4.97009243 0.0 0.11477937 -0.0 35.74026682" Properties=species:S:1:pos:R:3:forces:R:3 virial="29.513365416691475 14.44396907895517 -75.67175222600474 14.44396907895517 11.717357071021409 -42.52466486279857 -75.67175222600474 -42.52466486279857 10.569723739661907" config_type=perturb dataset=0.4 energy=-603.63559298 pbc="T T T"
Zr       0.05411046       3.30131938       9.87822539       1.12481860       0.61182900       0.37502315
Zr       0.02759391       0.01661353       0.15440594      -0.34801039      -0.29919030       0.87287756
Zr       0.03501246       3.28698628       2.92445056       0.96346363       0.88834370      -0.61078179
Zr       2.91203874       4.95085951      22.22496740       1.72628279       1.06505655       0.58879406
Zr       2.91831944       1.66332796      12.54989192       0.53686931       0.37064592       1.10553044
Zr       0.05984707       0.02228043      14.55690847       0.18550305       0.04964211       0.64968418
Zr       2.95445540       1.68170602      33.90414076       1.48950300       0.28614263       0.70692437
Zr       0.09456059       3.33862962      24.26936851       0.12950830      -0.33395934       0.61532166
Zr       2.96674199       1.67149521      26.97261659       0.05137903       0.39949046       0.76465129
Ti       2.90273419       1.64000888       5.54161066       0.57445973       0.49140796       0.67043403
Ti      -2.82123383       4.94815563       7.32723661       1.21678531       0.89505963       0.52769734
Ti       0.05614697       3.30663808      17.22390067       0.97824520       0.67781307      -0.20144286
Ti       2.90466831       1.67475460      19.70130979       1.64575211       0.77478800       0.26619023
Ti       2.95461488       4.96827636      29.56762764       0.89376998       0.32537159       0.48406243
Ti       0.10986269       3.29698795      31.36520187       1.56754357       1.23886075       0.30195787
Pb       2.88065287       1.65539341       2.32123070       0.54202895       0.21020273      -0.63927739
Pb       0.02535694       0.01472107       4.12559202       0.12658144      -0.06497052      -0.07493837
Pb       0.02073490       3.32167251       6.53864950       0.16878482      -0.10449444       0.03780809
Pb       2.91265696       1.67003555       9.20920427       0.31130865       0.02904211      -0.05724837
Pb       5.76958628       0.00433810      11.93769269       0.29955604      -0.05427850       0.15127093
Pb       0.03792833       3.33829737      13.97264865       0.38584532       0.15136201      -0.04437526
Pb       2.92078149       1.64633621      16.53834364       0.26069703       0.17376723      -0.59751679
Pb       5.77822402       0.02330302      18.91039104      -0.01899482      -0.00138258      -0.20118743
Pb       0.03824210       3.31107071      20.89230442       0.24743796       0.09154580      -0.09485441
Pb       2.92183532       1.62971040      23.60200429       0.20351206       0.29301486      -0.01693928
Pb       5.79433404       0.00627519      26.35830172       0.53943619       0.16420369      -0.26010516
Pb       0.09636114       3.34284043      28.21391198       0.22679569       0.02407420      -0.32508541
Pb       2.99049221       1.66201133      30.63022689       0.08933711      -0.05303963      -0.24391678
Pb       0.12711871       0.00141081      32.55194504       0.08748458       0.19080956      -0.03844208
Pb       0.09499851       3.28560206      35.32591054       0.31806769       0.41430653      -0.36220474
O        2.90094789       0.08240702       4.01664255      -0.05265182      -0.20588824       0.39059147
O        2.86492434       3.34045071       6.55772120       0.04204958      -0.65840327      -0.29805988
O        0.04294139       1.67698354       8.31096394      -0.20660091      -0.47454754       0.06064639
O        2.90507918       0.04978373      11.00802166      -0.05591045      -0.08759690      -0.11895360
O       -0.02614924       1.72123013       1.30326040       0.02195262      -0.17438294       0.54506902
O        4.25193311       2.40804477       4.39862188      -1.52557922      -0.77444074       0.12563380
O        1.40594350       0.80196214       6.19315278       0.03929333      -0.13913609      -0.52832823
O        1.45422168       4.16921233       8.68416504      -0.31483760      -0.12702478      -0.23921503
O        4.25728543       2.47721524      11.34702877      -0.44258194      -0.31230449      -0.65886318
O        1.35215977       4.09720136       1.63983856      -0.80115113      -0.53705666      -0.13718143
O        1.53220557       2.45706355       4.06485514      -0.10654055       0.03277652       0.11470840
O        4.36942472       0.80293061       6.55077677      -0.80389309       0.30302105      -0.32758781
O       -1.40789703       4.11880605       8.32108655      -0.49238579       0.04806114      -0.04667183
O        1.55102358       2.47519917      11.03160879      -0.46988504       0.06364614      -0.29299038
O       -1.38136952       4.08209745       1.29771816      -0.22371830       0.04422691       0.45566660
O        0.06162386       1.75291989      15.71878009       0.05081036      -0.27288754       0.01735585
O        2.92347086       0.02063761      18.20948611      -0.14625676      -0.45336120       0.05212249
O        2.93482590       3.32798284      20.68270342      -0.21034440      -0.21707956       0.22492300
O        0.09706924       1.74093108      22.68964197      -0.08214099      -0.79679765      -0.25925181
O        2.93408347       3.38343321      13.72637406      -0.10191076      -0.29442245      -0.20696635
O        1.40802969       4.08683678      16.05186983      -1.34538914      -0.70022700       0.09255169
O        4.33150519       2.45794082      18.56723956      -0.50605603      -0.35218525      -0.10682854
O        1.51666178       0.83931616      20.37854242      -0.62842709      -0.31095208      -0.17966391
O        1.41653602       4.12696709      23.00465182      -0.85276504      -0.52278927       0.00865794
O        1.39654251       0.78041092      13.31680365      -0.48377079      -0.28833924      -0.52809462
O       -1.31424948       4.10274227      15.70297216      -0.13091464       0.19305939       0.13468413
O        1.53330807       2.47375834      18.20876972      -0.50336108       0.06895156       0.16068225
O        4.33822270       0.81300951      20.70344988      -0.15918915       0.01615463       0.06368857
O       -1.26901667       4.08164909      22.66916489      -0.92181162       0.42373149      -0.20014840
O        4.41955268       0.79129458      13.69526468      -0.33441287       0.05837792       0.00875741
O        2.93240170       3.43563797      28.12749630       0.20398084      -0.86752828      -0.30693991
O        0.09959061       1.65551766      29.87822591      -0.14554395      -0.27252975       0.00006752
O        0.10045617       4.95615147      32.37197854      -0.21816088      -0.07025655       0.02675326
O        3.00724816       3.37184510      35.05572896      -0.18592075      -0.28696761      -0.05271845
O        2.91978446       0.10516890      25.36306785       0.03000526      -0.51760497       0.13126733
O        1.41575325       0.75743876      27.69158547      -0.98833694      -0.62110147      -0.05774133
O        1.48074283       4.12444582      30.22681299      -0.39455620      -0.30463975      -0.10972809
O       -1.31284672       2.51759948      32.02624397      -1.03601215      -0.64840009      -0.00228061
O        1.46722676       0.77301145      34.68176246      -0.03560479      -0.05305215      -0.77313043
O        4.28541969       2.41595587      25.73649590       0.34333113       0.14437535      -0.89625337
O        4.47662557       0.75498512      28.09154976      -0.55141025       0.45724103       0.06972175
O       -1.29356786       4.10853267      29.87513779      -0.68062486       0.21783717      -0.07633567
O        1.51531312       2.48526813      32.40105595      -0.08567979      -0.15075458      -0.05807209
O        4.47116838       0.80296222      35.06647194      -0.42527363       0.16090179      -0.30209026
O        1.60125464       2.45917007      25.41604635      -0.60556469       0.35483119      -0.26936517
50
Lattice="28.8011223 0.11504169 0.210978 0.57602245 5.75208443 0.00421956 -0.06468807 0.0 4.29980149" Properties=species:S:1:pos:R:3:forces:R:3 virial="-17.75280401728169 -36.74601504286683 -0.4663185256681248 -36.74601504286683 -13.13200867406623 -0.8053424536256256 -0.4663185256681248 -0.8053424536256256 -25.21112461401529" config_type=perturb dataset=0.4 energy=-404.51563884 pbc="T T T"
Zr      17.82392182       2.92312013       2.13787861       0.29449096      -0.31614909       0.37875404
Zr      26.54126596       5.82911817       2.23592950       0.31043421      -0.07202548       0.22997500
Zr      15.15467424       5.79329092       2.12776250      -0.72111803       0.21802425       0.49635856
Zr       3.18258042       0.01372124       2.02889551      -0.77032913       0.33739876       0.40540863
Zr      11.85558703       2.93526646       2.13047350       0.94970831      -0.83690509      -0.03198788
Zr       0.47176134       2.85533396       2.03671381      -0.30870244      -0.14087706       0.57334901
Ti      20.98022424       5.81415246       2.23917314      -0.33567142      -0.22061920       0.41958841
Ti      23.44464693       2.96405175       2.23363736      -0.66319856       0.05383371       0.90085346
Ti       6.28373759       2.91657203       2.09349249       0.29382417      -0.69987137       1.30867124
Ti       8.70768539       0.03623286       2.16098825       0.56081931      -0.35236161      -0.03276272
Pb       0.67398238       5.72326284       0.18761844      -0.04228049       0.00889059       0.14549059
Pb      18.11342523       5.80157656       0.28583708       0.04592694      -0.08899651       0.16284825
Pb      20.69761171       2.96202055       0.26774666      -0.05754660       0.03212240       0.18385929
Pb      23.65981498       5.83739505       0.29070970      -0.22216750       0.00002076       0.12220194
Pb      26.20611290       2.98912588       0.33946477       0.10963737      -0.22230851       0.14202755
Pb      14.82729809       2.92100652       0.26832288      -0.32879684      -0.04425284       0.15794456
Pb       3.41080745       2.91430775       0.19086896      -0.22260912      -0.06652561      -0.02597134
Pb       5.99684547       0.03216231       0.15262849       0.07546095       0.07729737       0.10809379
Pb       9.01698504       2.89824385       0.18208608      -0.00921685      -0.07525386       0.13310482
Pb      12.09355307       5.76894797       0.21831089       0.27201069      -0.00174553       0.25008107
O       17.90284947       2.96425821       4.15730176       0.00684521       0.02805728      -0.32713116
O       20.99647435       5.82674558       4.02701895       0.19222125       0.00364158      -0.43956802
O       23.39836787       2.96387825       4.03945300       0.20952900       0.02222184      -0.70305178
O       26.52125612       5.83058800       4.25332362       0.04683157      -0.02995300      -0.42216980
O       15.14815751       5.78606201       4.15335620       0.12247527       0.06757654      -0.54035201
O       16.54292852       4.39897599       1.80554039       0.33812457      -0.08006769      -0.28436558
O       19.19765382       1.43559109       1.84523917      -0.03137020       0.01798831      -0.27496923
O       22.23932737       4.40249802       1.86915573       0.18488215       0.11911481      -0.36228783
O       24.74391042       1.64451779       1.89618280       0.02085349       0.19002176      -0.29108612
O       27.97770003       4.42721268       1.93833425      -0.65810437       1.02723843      -0.40600504
O       16.22370788       1.52105968       1.80318776       0.19172251       0.05603210       0.27812148
O       19.51193213       4.45067593       1.87129901      -0.23343630      -0.08515288       0.03167925
O       21.94894810       1.54211414       1.86674031       0.24267474      -0.06688369       0.06212803
O       24.95494255       4.35417140       1.89096452       0.41237399       0.20368875       0.22554957
O       27.66346588       1.54002658       1.92903583      -0.18419856      -0.23372129       0.11875738
O        3.21080741       0.01721032       4.05391381       0.21520454      -0.01928032      -0.36555665
O        6.31174807       2.92606019       3.93469849       0.10184136      -0.02409779      -1.21168190
O        9.30986236       5.76304712       3.93220636      -0.13934914       0.08797073      -0.31804511
O       11.89198223       2.92337773       4.10703364      -0.25780512       0.14630459       0.02425671
O        0.48151705       2.88429361       4.04581156       0.10151487       0.10062058      -0.30185850
O        1.82069843       1.45745610       1.70947575       0.85781309      -0.71291679      -0.34019818
O        5.08778650       4.26280725       1.75821291       0.05655669       0.14450060      -0.37768687
O        7.55039887       1.46333119       1.75029652      -0.22969922       0.21121133      -0.24174253
O       10.62396450       4.45110156       1.78458585      -0.65501692       0.82642886      -0.35654422
O       13.27996963       1.53631949       1.77881111       0.02916331       0.07804829      -0.20392305
O        2.13944854       4.34189076       1.70669002       0.15148809       0.04833600       0.24187987
O        4.77342672       1.55014950       1.73898355       0.16417444      -0.18503664       0.17618726
O        7.86230450       4.32134498       1.72619635      -0.16516704       0.15740535       0.30270316
O       10.31042777       1.40606762       1.76520357      -0.19362787       0.15824583       0.25321465
O       13.57399688       4.32689428       1.83758772      -0.12919137       0.15276043       0.02585798
75
Lattice="5.81448981 -0.0 0.0 -2.9072449 5.03549588 0.72421175 -0.0581449 0.10070992 36.21058742" Properties=species:S:1:pos:R:3:forces:R:3 virial="-28.226865858257895 -1.5071225452535901 2.2327299590903014 -1.5071225452535901 -16.241870558122944 -68.44125507374747 2.2327299590903014 -68.44125507374747 -24.427572592667687" config_type=perturb dataset=0.4 energy=-604.03389379 pbc="T T T"
Zr       0.00778339       3.37192084      10.24581868      -0.23428840       1.07390760       0.27630075
Zr       0.02722575       0.01725436       0.15422683      -0.98958511       0.43928572       0.39476150
Zr       0.02236974       3.33780635       3.19908420      -0.38608840       1.33069145      -0.98145665
Zr       2.84535360       5.07663502      22.51938262       0.60105185       0.90162811       0.73027680
Zr       2.89780576       1.71923212      12.47284975      -0.12668096       0.63883559       0.90384556
Zr      -0.01039635       0.06358337      14.74843784      -0.35559351       0.40715869       0.33530929
Zr       2.83018197       1.79803229      34.11354188       0.67086132       0.46980134       0.93037761
Zr      -0.02146231       3.45026828      24.82978590      -0.63394501       0.30525815       0.33211560
Zr       2.87647781       1.76814521      27.08569805      -0.41967232       0.68079209       0.33744919
Ti       2.91621621       1.67586035       5.36977159      -0.00590568       0.62377325       0.54428665
Ti      -2.89411372       5.03391307       8.14315222      -0.19500741       1.18113607       0.37970838
Ti      -0.02601600       3.39801486      17.69126704      -0.12073340       0.89058906      -0.26438962
Ti       2.84905337       1.75097114      19.72383092       0.19791179       1.00198143       0.54810475
Ti       2.85267094       5.11496121      29.95753831       0.34228857       0.39817825       0.42597902
Ti      -0.04061009       3.42808453      32.01690859      -0.25267681       1.57193825       0.33455562
Pb       2.90956002       1.68237385       2.10961575       0.14969355       0.55234209      -0.42267369
Pb       0.00556771       0.02653276       4.17942595      -0.06390857       0.07458616       0.18207947