20
Lattice="5.63821682 0.0 0.0 0.0 8.11270442 0.0 0.0 0.0 5.6144534" Properties=species:S:1:pos:R:3:forces:R:3 virial="29.345128376369154 0.0539857757923097 -0.25537624437195605 0.0539857757923097 21.768015132886816 -0.08338005137809534 -0.25537624437195605 -0.08338005137809534 30.77650431608581" config_type=perturb dataset=0 energy=-164.13593765 pbc="T T T"
Zr       0.00070816       8.08806508       5.60403853       0.05893082       0.73487229       0.52089096
Zr       2.82692027       8.09296394       2.81548315      -0.04530984       0.76788076      -0.08883606
Zr       5.61078143       4.07436704       0.01607536       0.43931881      -0.80696958      -0.07956626
Zr       2.79463844       4.08408444       2.81150738       0.16932078      -0.74890299       0.26100372
Pb       0.09613086       2.03923713       2.78553998       0.03442584       0.00425005       0.03285324
Pb       5.53088417       6.08829723       2.84209173      -0.08345503      -0.11642754       0.02957552
Pb       2.67326082       6.11027431       5.60775530       0.10176196      -0.25790459      -0.15053145
Pb       2.93843061       2.04177405       0.04909261      -0.00633950      -0.00739520      -0.07408672
O        1.20138966       4.36830281       4.01008730      -0.20163423       0.18500400      -0.10988111
O        4.40351934       3.77720914       1.60094022       0.25463866      -0.17792731       0.32105754
O        1.63016297       3.75613736       1.17487603       0.08380128       0.01032906       0.06640048
O        4.05271033       4.35641657       4.42353626      -0.75878533       0.27754858      -0.48225557
O        4.43795401       0.30137723       1.60387439      -0.12421964      -0.03032309       0.43621487
O        1.19090929       7.80505720       4.01062466       0.35261642      -0.17657354      -0.56054830
O        4.03631688       7.80098438       4.43653675      -0.61820276      -0.20141970      -0.38417462
O        1.61343759       0.31676209       1.19896568       0.28541757      -0.15536951       0.16511564
O        0.05791097       6.06682729       0.37602644       0.07451901       0.42263495       0.32075237
O        5.58388798       2.01733145       5.23679304       0.04239251       0.09118230      -0.15394429
O        2.77693117       2.04196762       3.22986361      -0.00221639      -0.36987225      -0.11256190
O        2.87566914       6.07214224       2.38903099      -0.05698095       0.55538331       0.04252194
20
Lattice="5.90885137 0.0 0.0 0.0 8.49871359 0.0 0.0 0.0 6.00162625" Properties=species:S:1:pos:R:3:forces:R:3 virial="-17.65834568241301 0.01553613425220321 -0.09727188630278309 0.01553613425220321 -23.283971555598857 -0.04717245251889829 -0.09727188630278309 -0.04717245251889829 -24.074753391184082" config_type=perturb dataset=0 energy=-164.42918939 pbc="T T T"
Zr       0.00074215       8.47290189       5.99049317      -0.02711922       0.59129023       0.22792947
Zr       2.96261252       8.47803384       3.00963894      -0.01565443       0.58607068      -0.13152576
Zr       5.88009908       4.26822878       0.01718392       0.11261267      -0.43466855      -0.11776062
Zr       2.92878115       4.27840854       3.00538900       0.09629503      -0.52240781       0.08360511
Pb       0.10074515       2.13626571       2.97763088      -0.07022098      -0.00786120       0.03568982
Pb       5.79636675       6.37798344       3.03808244       0.03578377      -0.09135640       0.09176002
Pb       2.80157741       6.40100620       5.99446625       0.09630663      -0.16150738      -0.01756104
Pb       3.07947536       2.13892335       0.05247804      -0.09004747       0.03595132      -0.04546493
O        1.25905640       4.57615026       4.28662302       0.10165619       0.01142238      -0.06717920
O        4.61488838       3.95693187       1.71134110       0.16024202       0.05234104      -0.03528479
O        1.70841083       3.93485748       1.25589551      -0.06807239       0.19558986       0.33322414
O        4.24724053       4.56369846       4.72858344      -0.27081404       0.04337730      -0.34508351
O        4.65097592       0.31571701       1.71447761      -0.22263789      -0.23805142       0.16640747
O        1.24807296       8.17642826       4.28719743       0.31002898      -0.02583639      -0.10647286
O        4.23006019       8.17216165       4.74248044      -0.23698715      -0.00955871      -0.42856347
O        1.69088264       0.33183389       1.28164639       0.12354600      -0.36356625       0.29178003
O        0.06069070       6.35549193       0.40195724       0.14193129       0.23246737       0.04465210
O        5.85191474       2.11331774       5.59792242      -0.07416876       0.00395591       0.03214010
O        2.91022393       2.13912613       3.45259508      -0.08430649      -0.24957364      -0.25574812
O        3.01370133       6.36105978       2.55377863      -0.01837375       0.35192165       0.24345602
20
Lattice="5.75328247 0.0 0.0 0.0 8.27495851 0.0 0.0 0.0 5.72903408" Properties=species:S:1:pos:R:3:forces:R:3 virial="8.944253694986784 0.03261098510421651 -0.20492904070227252 0.03261098510421651 2.2428261013640416 -0.057354443602538496 -0.20492904070227252 -0.057354443602538496 9.106594090488205" config_type=perturb dataset=0 energy=-165.18178356 pbc="T T T"
Zr       0.00072261       8.24982639       5.71840666       0.02008714       0.67907413       0.40744145
Zr       2.88461252       8.25482322       2.87294199      -0.03253371       0.69986993      -0.11426061
Zr       5.72528717       4.15585438       0.01640343       0.31662362      -0.64261355      -0.10396409
Zr       2.85167187       4.16576612       2.86888508       0.14750260      -0.65420170       0.18532517
Pb       0.09809272       2.08002187       2.84238773       0.00802100      -0.00177614       0.03419686
Pb       5.64375936       6.21006318       2.90009360      -0.05478007      -0.10581567       0.06544729
Pb       2.72781717       6.23247979       5.72219929       0.07899134      -0.22193762      -0.10306353
Pb       2.99839858       2.08260953       0.05009450      -0.02475014       0.01033254      -0.05644302
O        1.22590782       4.45566887       4.09192581      -0.06753103       0.10254763      -0.10519195
O        4.49338708       3.85275332       1.63361247       0.20146025      -0.07081038       0.18880702
O        1.66343160       3.83126011       1.19885309       0.00819540       0.09876467       0.16586905
O        4.13541871       4.44354490       4.51381251      -0.54588961       0.16889081      -0.41517779
O        4.52852450       0.30740478       1.63660652      -0.17945906      -0.13070577       0.34013322
O        1.21521356       7.96115835       4.09247414       0.35055243      -0.10571855      -0.38868931
O        4.11869069       7.95700407       4.52707832      -0.44971302      -0.11180937      -0.39228648
O        1.64636489       0.32309733       1.22343437       0.21003349      -0.25365344       0.20582634
O        0.05909283       6.18816383       0.38370045       0.10777017       0.33653425       0.20665624
O        5.69784488       2.05767808       5.34366636      -0.01520901       0.05343782      -0.08336438
O        2.83360323       2.08280697       3.29577919      -0.04414420      -0.31590776      -0.16451499
O        2.93435627       6.19358509       2.43778673      -0.03522756       0.46549817       0.12725350
20
Lattice="5.79296153 0.0 0.0 0.0 8.33202899 0.0 0.0 0.0 5.88391683" Properties=species:S:1:pos:R:3:forces:R:3 virial="-1.9627629218840685 0.02505149655637859 -0.14080911855236466 0.02505149655637859 -7.716772805960463 -0.05575573927251289 -0.14080911855236466 -0.05575573927251289 -7.578479286109393" config_type=perturb dataset=0 energy=-165.22422535 pbc="T T T"
Zr       0.00072760       8.30672353       5.87300211       0.00262247       0.65610609       0.32065755
Zr       2.90450703       8.31175483       2.95061113      -0.02579102       0.66279732      -0.11962716
Zr       5.76477315       4.18451635       0.01684689       0.21016870      -0.57788566      -0.10924434
Zr       2.87133920       4.19449645       2.94644455       0.12377229      -0.61558086       0.14101919
Pb       0.09876924       2.09436730       2.91923084      -0.04634382      -0.00844103       0.04843314
Pb       5.68268306       6.25289255       2.97849677       0.00544042      -0.09616791       0.06300842
Pb       2.74663029       6.27546377       5.87689726       0.11394109      -0.19637517      -0.04042770
Pb       3.01907785       2.09697281       0.05144879      -0.07895180       0.01651344      -0.07063527
O        1.23436262       4.48639859       4.20254982      -0.00941796       0.07183334      -0.04212557
O        4.52437693       3.87932488       1.67777670       0.21336702      -0.02109548       0.03922477
O        1.67490391       3.85768343       1.23126373      -0.00288512       0.13927872       0.29377508
O        4.16393973       4.47419100       4.63584210      -0.44741433       0.12243786      -0.42610136
O        4.55975669       0.30952488       1.68085170      -0.17241215      -0.17170812       0.21133564
O        1.22359461       8.01606462       4.20311297       0.30271669      -0.07745338      -0.20781340
O        4.14709635       8.01188169       4.64946655      -0.37949346      -0.07479536      -0.46036143
O        1.65771949       0.32532566       1.25650956       0.19272445      -0.29729891       0.28917371
O        0.05950038       6.23084217       0.39407368       0.11487090       0.30186260       0.15641609
O        5.73714160       2.07186941       5.48813081      -0.02809225       0.03323626      -0.04335535
O        2.85314594       2.09717161       3.38487961      -0.04982956      -0.29396940      -0.19725190
O        2.95459384       6.23630082       2.50369157      -0.03899254       0.42670566       0.15389989
10
Lattice="5.78159527 0.0 0.0 0.0 5.79599729 0.0 0.0 0.0 3.9805789" Properties=species:S:1:pos:R:3:forces:R:3 virial="11.478867925688768 -0.8071716446900205 -0.05759635020301325 -0.8071716446900205 14.809678168031466 -0.1732618514301078 -0.05759635020301325 -0.1732618514301078 15.411579930240288" config_type=perturb dataset=0 energy=-81.97634895 pbc="T T T"
Zr       2.90555001       0.04170295       1.99921864      -0.52927667      -0.57906771      -0.14423038
Zr       0.01366359       2.93568862       1.96196274      -0.51477592      -0.04177205       0.74002675
Pb       2.87926671       2.59342930       3.98023673       0.03000471       1.10567875       0.00205668
Pb       5.76078661       5.48410876       0.00491916       0.18751778       1.13626090      -0.03864911
O        1.33113744       4.58529356       1.98882730       0.52635548       0.51785047       0.03008957
O        4.45596457       4.62108222       1.98071890      -0.06809260      -0.10549342       0.04323604
O        2.89134920       0.33030084       0.00036215      -0.04791442      -0.07883314       0.07105145
O        4.23570250       1.72696185       1.98143720      -0.67135061      -0.52263001       0.04321957
O        1.52100561       1.73352384       1.97034341       1.21166057      -1.14505434       0.07875840
O        0.02805479       3.25417357       0.01173909      -0.12412834      -0.28693945      -0.82555897
10
Lattice="5.74358895 0.0 0.0 0.0 5.99531059 0.0 0.0 0.0 4.03511416" Properties=species:S:1:pos:R:3:forces:R:3 virial="7.381290136069029 -0.7635779458230809 -0.0451004307160735 -0.7635779458230809 5.1909626988132604 -0.11643082811320488 -0.0451004307160735 -0.11643082811320488 8.088839507862348" config_type=perturb dataset=0 energy=-82.42007011 pbc="T T T"
Zr       2.88644987       0.04313704       2.02660861      -0.46463688      -0.28831956      -0.12525617
Zr       0.01357377       3.03664136       1.98884228      -0.40704987       0.30853096       0.59782674
Pb       2.86033935       2.68261240       4.03476730       0.03073423       0.41649057       0.00449934
Pb       5.72291708       5.67269681       0.00498655       0.18700489       0.37007633      -0.01898287
O        1.32238698       4.74297306       2.01607490       0.66753496       0.52925578       0.02699554
O        4.42667251       4.77999243       2.00785541      -0.29093401       0.00979000       0.04163243
O        2.87234241       0.34165926       0.00036711      -0.03344054       0.08236903       0.04174423
O        4.20785837       1.78634877       2.00858355      -0.41754573      -0.42467454       0.03635618
O        1.51100701       1.79313643       1.99733777       0.85511184      -0.92380637       0.07116067
O        0.02787036       3.36607840       0.01189991      -0.12677889      -0.07971219      -0.67597609
40
Lattice="8.22984083 0.0 0.0 0.0 8.06524401 0.0 0.0 0.0 8.22984083" Properties=species:S:1:pos:R:3:forces:R:3 virial="19.655111657217155 -0.03491855600818564 -0.01851338459600971 -0.03491855600818564 39.678956062164424 -0.0005555737173519435 -0.01851338459600971 -0.0005555737173519435 19.581233622561896" config_type=perturb dataset=0 energy=-327.94558817 pbc="T T T"
Zr       0.02848801       8.05255149       0.00266721      -0.21863103       0.18593442       0.09401767
Zr       4.14063184       8.04897270       0.01578237      -0.12982814       0.45056938      -0.08141627
Zr       8.20749632       4.02228551       0.01440436       0.71624021       0.10669195      -0.41678151
Zr       4.11941399       4.05975986       8.21640232      -0.00550001      -1.14247491       0.25547872
Zr       8.22163889       0.00690280       4.10345197       0.05653915      -0.13229665       0.25456332
Zr       4.08937079       8.04683533       4.14096572       0.53681781       0.45938492      -0.49561118
Zr       8.21176802       4.01558426       4.08851242       0.43961219       0.48648404       0.93226789
Zr       4.12343435       4.03696933       4.13270189      -0.32093600      -0.78258090      -0.44937491
Pb       2.06217451       2.04457896       2.04536514       0.22792856      -0.00388242      -0.02519484
Pb       6.15457907       2.04124454       2.03323847      -0.22101467      -0.13183734       0.03104351
Pb       2.05305741       6.02840333       2.05976695      -0.06893140      -0.02494001       0.08389556
Pb       6.16194321       6.04678402       2.07190489       0.15222549       0.06029245       0.10847084
Pb       2.04206530       1.99817453       6.18611779      -0.05808424       0.09609273       0.04792435
Pb       6.14651654       2.02013844       6.18469757       0.03070769      -0.13798868      -0.02434315
Pb       2.04189429       6.04360632       6.17706447      -0.32802372      -0.11676312      -0.03990931
Pb       6.16125832       6.05869155       6.16845227       0.37153966       0.07982533      -0.08331987
O        2.05932756       0.02235258       0.01173485       0.33594485      -0.08792653      -0.07423613
O        8.20586772       2.00585683       0.00356838       0.07928959       0.26284824       0.07722860
O        0.01848274       8.04666080       2.07917942       0.00639552      -0.06799656      -0.45378083
O        6.19149212       0.02847152       8.21903834      -0.17736637      -0.11474422      -0.03337298
O        4.10666498       1.99805274       0.02829098       0.05016671       0.46977778      -0.12973629
O        4.12508040       0.02126539       2.03922280       0.07120113      -0.23034005       0.71379148
O        2.08038723       4.03714290       8.21110074      -0.62097010      -0.00314439       0.06085499
O        8.20064539       6.05630262       8.22529203       0.02589950      -0.43863186       0.03984525
O        0.00000132       4.05463673       2.07927274       0.12089902       0.06850829      -0.89110969
O        6.19466711       4.02284032       0.02250952      -0.60237854       0.01310019       0.03975445
O        4.10105675       6.03134424       8.21670823       0.06891072       0.57999180      -0.03295764
O        4.08985594       4.01152171       2.03421831       0.07565826       0.06045169       0.54960498
O        2.07313468       8.03987720       4.11940518      -0.37670890      -0.02740009       0.03930147
O        0.00104560       2.04466477       4.09789600       0.09629627      -1.21322915       0.07498408
O        0.02321877       8.05977707       6.17357008       0.12036854       0.01636496      -0.03654459
O        6.18867604       0.02249614       4.13915738      -0.49702283      -0.17324320       0.03040911
O        4.14005056       2.00580126       4.10375194      -0.01736845       0.01699910      -0.02459048
O        4.12214078       0.01137837       6.17650377       0.01550763      -0.09093026       0.03162738
O        2.04372098       4.01643756       4.10960567       0.58055836       0.09280739      -0.00300297
O        8.20017941       6.02723653       4.12815877       0.03020645       0.79810906       0.03794314
O        0.00596853       4.04460478       6.18138292      -0.00925497      -0.00433508       0.07543108
O        6.18978229       4.02183095       4.09117058      -0.83411368       0.05149144      -0.02290659
O        4.11800825       6.02195598       4.09993651       0.14306954       0.56847408      -0.04976138
O        4.12742187       4.00659135       6.17503458       0.13415023       0.00048620      -0.21048724
10
Lattice="5.97802115 0.0 0.0 0.0 5.99531059 0.0 0.0 0.0 4.1998127" Properties=species:S:1:pos:R:3:forces:R:3 virial="-5.87591458121895 -0.5791194457159389 -0.0027153813949762243 -0.5791194457159389 -2.987439482574168 -0.017745027914885875 -0.0027153813949762243 -0.017745027914885875 -6.325304531841256" config_type=perturb dataset=0 energy=-82.48691695 pbc="T T T"
Zr       3.00426415       0.04313704       2.10932733      -0.30454560      -0.18404586      -0.07980216
Zr       0.01412780       3.03664136       2.07001952      -0.20282886       0.29186019       0.30113023
Pb       2.97708789       2.68261240       4.19945168      -0.00538264       0.00863254       0.02956002
Pb       5.95650553       5.67269681       0.00519009       0.12343873      -0.03248589      -0.00537446
O        1.37636195       4.74297306       2.09836367       0.72797732       0.64491512       0.02330093
O        4.60735302       4.77999243       2.08980870      -0.49939966       0.29259372       0.03651085
O        2.98958088       0.34165926       0.00038210      -0.00720560      -0.12491065      -0.02591953
O        4.37960769       1.78634877       2.09056655      -0.15835868      -0.13193655       0.02268864
O        1.57268077       1.79313643       2.07886176       0.45046905      -0.47506894       0.05295527
O        0.02900793       3.36607840       0.01238563      -0.12416407      -0.28955368      -0.35504978
40
Lattice="5.75253395 0.0 0.0 0.0 8.01302725 0.0 0.0 0.0 11.77394113" Properties=species:S:1:pos:R:3:forces:R:3 virial="27.644142161413818 -0.0625746133008315 1.041262373891219 -0.0625746133008315 30.223900964696092 -0.31771691173237115 1.041262373891219 -0.31771691173237115 18.68030478427853" config_type=perturb dataset=0 energy=-330.24426091 pbc="T T T"
Zr       4.38265163       6.02827404      10.32762408      -0.17614530      -0.34012493      -0.63733269
Zr       1.47665418       1.98350638       7.35673789       0.47654099       0.43038693      -0.27946714
Zr       1.40698599       5.99930374       1.44117054      -0.61251945       0.24086507       0.65303171
Zr       4.27712140       1.99593699       4.40823609      -0.31254693      -0.15448291       0.16287704
Zr       1.42293035       2.01026621       1.44738165      -0.88825494      -0.00867013       0.61214393
Zr       4.24217464       5.98429903       4.41739103       0.03972562       0.67439107       0.24247964
Zr       4.37444311       2.00767952      10.31886050       0.13238712       0.07521405      -0.33947815
Zr       1.45639468       6.02743532       7.36372325       0.37368612      -0.32489232      -0.19677582
Pb       1.73914426       8.00264894      10.34933252      -0.41323221       0.02612086      -0.37079052
Pb       4.59426975       0.02591453       7.33317930      -0.53802477      -0.19566635      -0.05723255
Pb       4.01441554       0.00763593       1.44557718       0.60013019      -0.08028296       0.39418737
Pb       1.16097991       7.99190723       4.42141442       0.16653909      -0.04042058      -0.03915569
Pb       1.66631114       4.00508803      10.24680586      -0.27028481       0.10812071      -0.14778601
Pb       4.54731763       4.00244798       7.38121321      -0.45276069       0.07624579       0.01795055
Pb       4.10683333       4.00101044       1.49683114       0.38635389       0.07805510       0.05667027
Pb       1.23590960       4.00481102       4.40494091       0.07001980       0.07992664      -0.02187638
O        4.16428343       0.00638566       9.89035969      -0.06899881       0.13416468       0.10942907
O        1.28658862       0.01729307       7.72990295      -0.16448003      -0.45872113       0.35822213
O        1.60497463       8.00977965       1.84795303       0.01798952       0.01092645       0.03251081
O        4.44819853       7.99689150       4.01345737      -0.00421988       0.31520777      -0.09359465
O        4.03874508       4.00499572      10.69700393      -0.15644548       0.05137004       0.03223652
O        1.15309192       3.98948274       7.01133508      -0.14429212       0.36834924      -0.28992070
O        1.71415658       4.02645036       1.08333280       0.18904147      -0.44336195      -0.08307425
O        4.57862073       4.03528945       4.79695087       0.25075828      -0.95777184       0.07755616
O        5.54323065       5.74425317       8.70394579       0.32241880      -0.03688950      -0.32953315
O        2.66050197       2.27211904       8.96564294       0.54755475      -0.02581657       0.50142013
O        0.17779679       5.76982731       3.07951092       0.24399168      -0.16204483      -0.13642682
O        3.05927815       2.24290450       2.77694736       0.08126878       0.19546737       0.07054678
O        0.16351549       2.23711285       3.09614644       0.41794014       0.18386657      -0.28363041
O        3.06316629       5.74388770       2.81103186      -0.40705808      -0.13525662      -0.57085883
O        5.57710099       2.27718960       8.71342499      -0.08995853      -0.05776740      -0.03938727
O        2.68561655       5.78220399       8.94396170       0.18190042      -0.16944927       0.48495890
O        5.73193925       6.39014532       5.87663281       0.14680008       0.06565338       0.19368490
O        2.86614522       1.61612038       0.01218556       0.32295161       0.02088981      -0.33364510
O        5.72681564       1.60795206       5.91060758      -0.11778391       0.12303446      -0.23684112
O        2.88982207       6.36916521      11.75084042      -0.32949297       0.16394570       0.29602088
O        5.73534256       6.19313342       0.00160561       0.41065972       0.13205423       0.31877321
O        2.85150042       1.80618009       5.85713599       0.00918316       0.02887613      -0.00642304
O        0.02706642       1.83298848      11.75908136      -0.15975561      -0.08696168      -0.00627205
O        2.86628374       6.16531387       5.90753564      -0.08158668       0.09544892      -0.11519767
20
Lattice="5.6771023 0.0 0.0 0.0 8.00528275 0.0 0.0 0.0 5.76854591" Properties=species:S:1:pos:R:3:forces:R:3 virial="20.109553236299433 0.0747343739297784 -0.1503194401443141 0.0747343739297784 22.868594977782614 -0.1134561410759916 -0.1503194401443141 -0.1134561410759916 15.998529747980646" config_type=perturb dataset=0 energy=-164.6505014 pbc="T T T"
Zr       0.00071304       7.98096967       5.75784520       0.03044738       0.77423798       0.40476443
Zr       2.84641689       7.98580366       2.89275601      -0.03719873       0.82329826      -0.05070057
Zr       5.64947769       4.02041767       0.01651656       0.30513439      -0.89210894      -0.12656305
Zr       2.81391241       4.03000639       2.88867113       0.13601864      -0.83306393       0.25154584
Pb       0.09679386       2.01223525       2.86199102      -0.01874271       0.00366386       0.07185993
Pb       5.56902940       6.00768108       2.92009488      -0.02902213      -0.10558032       0.01412971
Pb       2.69169768       6.02936715       5.76166398       0.14605977      -0.24007400      -0.07520599
Pb       2.95869629       2.01473858       0.05043999      -0.05905804      -0.00224259      -0.11245967
O        1.20967537       4.31046139       4.12014688      -0.13855734       0.16549461       0.01982320
O        4.43388939       3.72719449       1.64487912       0.26316117      -0.14828728       0.11039859
O        1.64140583       3.70640172       1.20712130       0.05722500       0.04428946       0.26543611
O        4.08066094       4.29873253       4.54494324      -0.65700313       0.25515527      -0.55277345
O        4.46856156       0.29738665       1.64789382      -0.12162160      -0.05947703       0.24336914
O        1.19912271       7.70170914       4.12069899       0.30941639      -0.15697422      -0.31585921
O        4.06415442       7.69769025       4.55830054      -0.54163907      -0.18175823      -0.52300929
O        1.62456510       0.31256779       1.23187211       0.25918783      -0.18733917       0.31292901
O        0.05831037       5.98649542       0.38634675       0.09963779       0.45310096       0.45851958
O        5.62239876       1.99061963       5.38052040       0.04339911       0.09409727      -0.25645316
O        2.79608302       2.01492959       3.31850942       0.00294506      -0.40237067      -0.01125621
O        2.89550197       5.99174000       2.45459958      -0.04978978       0.59593871      -0.12849494
10
Lattice="5.78159527 0.0 0.0 0.0 5.91428295 0.0 0.0 0.0 3.9805789" Properties=species:S:1:pos:R:3:forces:R:3 virial="8.697903493711099 -0.7639335682044475 -0.05097313359490936 -0.7639335682044475 9.242679639046932 -0.1544662198896645 -0.05097313359490936 -0.1544662198896645 13.33462663403686" config_type=perturb dataset=0 energy=-82.22415076 pbc="T T T"
Zr       2.90555001       0.04255403       1.99921864      -0.48233127      -0.53694669      -0.15023773
Zr       0.01366359       2.99560064       1.96196274      -0.44263261       0.02001991       0.72301601
Pb       2.87926671       2.64635643       3.98023673       0.02981136       0.73818631       0.00178503
Pb       5.76078661       5.59602935       0.00491916       0.19336289       0.72262870      -0.02722828
O        1.33113744       4.67887098       1.98882730       0.61774749       0.51698967       0.02662551
O        4.45596457       4.71539002       1.98071890      -0.21742073      -0.04226293       0.04374023
O        2.89134920       0.33704168       0.00036215      -0.04503972       0.10863338       0.06638916
O        4.23570250       1.76220597       1.98143720      -0.49817162      -0.46051102       0.03814871
O        1.52100561       1.76890188       1.97034341       0.97143027      -0.99980012       0.07501670
O        0.02805479       3.32058528       0.01173909      -0.12675605      -0.06693721      -0.79725533
10
Lattice="5.8214696 0.0 0.0 0.0 6.07417385 0.0 0.0 0.0 4.08982861" Properties=species:S:1:pos:R:3:forces:R:3 virial="1.2395319818098323 -0.6624038764993667 -0.03120845269405973 -0.6624038764993667 -0.9092886102209885 -0.07143793096678802 -0.03120845269405973 -0.07143793096678802 1.5618040710488483" config_type=perturb dataset=0 energy=-82.57939064 pbc="T T T"
Zr       2.92558892       0.04370447       2.05408857      -0.38120665      -0.26853292      -0.11409298
Zr       0.01375782       3.07658582       2.01581014      -0.29838358       0.28962196       0.48171590
Pb       2.89912434       2.71789990       4.08947705       0.01746634       0.08513530       0.01384515
Pb       5.80051743       5.74731636       0.00505417       0.16671176       0.02146132      -0.00677866
O        1.34031799       4.80536288       2.04341203       0.74209800       0.60381405       0.02408803
O        4.48669633       4.84286920       2.03508109      -0.45155079       0.17849880       0.03894477
O        2.91129017       0.34615350       0.00037209      -0.02071129       0.06984582       0.01412840
O        4.26491516       1.80984669       2.03581910      -0.22181160      -0.25098142       0.02711669
O        1.53149563       1.81672362       2.02442083       0.57454458      -0.64683880       0.06109727
O        0.02824827       3.41035633       0.01206127      -0.12715678      -0.08202412      -0.54006456
40
Lattice="5.75253395 0.0 0.0 0.0 8.17655842 0.0 0.0 0.0 11.77394113" Properties=species:S:1:pos:R:3:forces:R:3 virial="20.380857735184403 0.026715909403273976 1.0620935007868475 0.026715909403273976 7.825732734120492 -0.23908841225294286 1.0620935007868475 -0.23908841225294286 10.461639410067429" config_type=perturb dataset=0 energy=-330.64605729 pbc="T T T"
Zr       4.38265163       6.15130004      10.32762408      -0.39831403      -0.27104982      -0.68808073
Zr       1.47665418       2.02398611       7.35673789       0.22449472       0.30268082      -0.21521748
Zr       1.40698599       6.12173851       1.44117054      -0.36084162       0.18594841       0.67422591
Zr       4.27712140       2.03667040       4.40823609      -0.10641819      -0.21971128       0.12182155
Zr       1.42293035       2.05129205       1.44738165      -0.63681135      -0.02733286       0.63112478
Zr       4.24217464       6.10642758       4.41739103       0.29226283       0.59104440       0.23570955
Zr       4.37444311       2.04865257      10.31886050      -0.09076030       0.05202069      -0.37585300
Zr       1.45639468       6.15044420       7.36372325       0.16108712      -0.21825242      -0.14198626
Pb       1.73914426       8.16596831      10.34933252      -0.26111466       0.03710428      -0.35129285
Pb       4.59426975       0.02644340       7.33317930      -0.38025006      -0.18768196      -0.06613726