25
Lattice="3.91562404 0.0 0.0 0.0 3.83731156 0.0 0.0 0.0 20.28424056" Properties=species:S:1:pos:R:3:forces:R:3 virial="26.43899667504869 0.014623208421184008 0.7011306189346174 0.014623208421184008 35.292092414040816 0.326185163782237 0.7011306189346174 0.326185163782237 35.09028874947198" config_type=perturb dataset=0.6 energy=-200.36332474 pbc="T T T"
Zr       0.02600479       3.83107267       0.10054918      -0.73877254       0.01605151       0.37442520
Zr       0.01251214       0.02579755       8.32015206       0.28758309      -0.56388596       0.73443017
Ti       0.02164381       3.81174731       4.26326460      -0.11265965       0.27659462       0.39618190
Ti       0.02674285       3.83631524      12.46298142      -0.13768899       0.12341703       0.32176142
Ti       3.88612181       0.00779346      16.35409005       0.09967832       0.05923944       1.00168534
Pb       1.93783760       1.90189452       2.11712887       0.11947535       0.02865799       0.44674651
Pb       1.97608361       1.91619791       5.94588171       0.00875506       0.02933858       1.18059192
Pb       1.95549769       1.93664767      10.32989616       0.06024735      -0.01987324       0.42108195
Pb       1.98631682       1.94667687      14.19373952      -0.09150631      -0.10046051       0.51682179
Pb       1.93044901       1.91111067      18.03692764       0.10749539       0.04621528       0.88369059
O        0.00668264       3.82596329       2.52188040      -0.03430060       0.07007507      -0.77991741
O        3.89507257       3.82650500       6.43327894       0.03659098       0.07751119      -1.98744999
O        0.01862983       0.00202157      10.74282285      -0.04068209      -0.00144278      -1.32343173
O        3.89717691       3.83450388      14.63120061       0.01922385       0.03629422      -1.50788578
O        3.88711618       3.82702849      18.47606522       0.09117623       0.06905048      -1.01330579
O        1.94500053       0.01342675       0.59260977       0.75672476      -0.07100057      -0.01094945
O        0.00786668       1.91556786       0.59078033      -0.14021266      -0.02033190       0.33289587
O        1.95702756       0.02307782       4.51300437       0.07516178      -0.06990681      -0.31094849
O        0.00192245       1.93135248       4.52236149      -0.01349899      -0.31475850      -0.20285273
O        1.98528357       3.82875247       8.78183538      -0.43949845      -0.00761774       0.17838821
O        3.91381522       1.91711713       8.80827081       0.09614311       0.57024519       0.41150053
O        1.95027993       3.83339271      12.68450460       0.25972071       0.06735418       0.16751137
O        0.00533414       1.92530857      12.70859964      -0.06801530      -0.11307366       0.17432647
O        1.95078845       3.82695481      16.59882772      -0.02521060       0.10218664      -0.24481421
O        0.02534959       1.93443849      16.60554749      -0.17592982      -0.28987974      -0.16048363
25
Lattice="3.96926939 0.0 0.0 0.0 3.96926939 0.0 0.0 0.0 20.5621414" Properties=species:S:1:pos:R:3:forces:R:3 virial="5.818820016899572 0.023511591782490487 0.48276093370271367 0.023511591782490487 5.252064139807562 0.2573088139382444 0.48276093370271367 0.2573088139382444 12.937280559933079" config_type=perturb dataset=0.6 energy=-201.61168641 pbc="T T T"
Zr       0.02636107       3.96281595       0.10192674      -0.62554083       0.00187435       0.69274468
Zr       0.01268356       0.02668468       8.43414091       0.18668384      -0.38111796       0.98753846
Ti       0.02194034       3.94282604       4.32167274      -0.06555600       0.09966152       0.10473874
Ti       0.02710924       3.96823881      12.63372841      -0.05074240       0.07372464      -0.03132283
Ti       3.93936297       0.00806147      16.57814652       0.07725179      -0.00536102       0.66367716
Pb       1.96438662       1.96729705       2.14613423       0.08055734      -0.00000488       0.04142788
Pb       2.00315662       1.98209230       6.02734226       0.02055282       0.01073654       0.54808317
Pb       1.98228866       2.00324529      10.47141917       0.04909322      -0.00104208       0.04064534
Pb       2.01353002       2.01361937      14.38819847      -0.05911570      -0.05600010       0.08359236
Pb       1.95689681       1.97683012      18.28403955       0.07543406       0.04463110       0.27974457
O        0.00677419       3.95753087       2.55643100      -0.01421983       0.05629845      -0.04765999
O        3.94843636       3.95809121       6.52141700       0.04686570       0.08450785      -1.25806168
O        0.01888507       0.00209109      10.89000310      -0.03053754      -0.00692601      -0.51897378
O        3.95056953       3.96636515      14.83165292      -0.00076319       0.03096115      -0.75427346
O        3.94037097       3.95863270      18.72919346       0.11533841       0.06416108      -0.40279482
O        1.97164768       0.01388847       0.60072872       0.59618552      -0.05276573      -0.09940280
O        0.00797446       1.98144058       0.59887422      -0.08843728      -0.00033405      -0.09775937
O        1.98383949       0.02387142       4.57483403       0.00912817      -0.06145514      -0.16443982
O        0.00194879       1.99776802       4.58431935      -0.00023516      -0.09830398      -0.21637798
O        2.01248261       3.96041597       8.90214944      -0.37375307      -0.00481359       0.07556401
O        3.96743579       1.98304314       8.92894705       0.10451607       0.35591142      -0.03357876
O        1.97699941       3.96521577      12.85828653       0.14967690       0.03844173       0.24945217
O        0.00540722       1.99151626      12.88271168      -0.05035395      -0.05937911       0.12532291
O        1.97751490       3.95855649      16.82623718       0.03001385       0.10005758      -0.10957031
O        0.02569689       2.00096014      16.83304901      -0.18204275      -0.23346376      -0.15831585
25
Lattice="4.04865478 0.0 0.0 0.0 4.04865478 0.0 0.0 0.0 20.98177694" Properties=species:S:1:pos:R:3:forces:R:3 virial="-14.429633797273166 -0.0018977115376134911 0.24328857897797837 -0.0018977115376134911 -14.78625085857789 0.1944517941728914 0.24328857897797837 0.1944517941728914 -8.936794648614612" config_type=perturb dataset=0.6 energy=-201.49704196 pbc="T T T"
Zr       0.02688829       4.04207227       0.10400688      -0.48266172       0.00000483       0.60026763
Zr       0.01293723       0.02721838       8.60626624       0.09186759      -0.30390067       0.81268954
Ti       0.02237914       4.02168256       4.40987015      -0.00726593      -0.00241851      -0.38845337
Ti       0.02765142       4.04760359      12.89155960       0.04364822       0.03746023      -0.59312655
Ti       4.01815023       0.00822270      16.91647604       0.03054989      -0.04771535       0.10632333
Pb       2.00367435       2.00664299       2.18993289       0.04575399      -0.01717392      -0.28013521
Pb       2.04321975       2.02173415       6.15034925       0.04608825       0.00301129       0.05246640
Pb       2.02193443       2.04331020      10.68512160       0.03660647       0.02222990      -0.26164777
Pb       2.05380063       2.05389176      14.68183518      -0.03350092      -0.02620745      -0.26066375
Pb       1.99603474       2.01636672      18.65718321       0.03525585       0.05531974      -0.20689512
O        0.00690968       4.03668149       2.60860306       0.00667947       0.04197643       0.79186148
O        4.02740509       4.03725304       6.65450715       0.05644518       0.09614237      -0.42232798
O        0.01926277       0.00213291      11.11224806      -0.01449609      -0.01222850       0.40816796
O        4.02958092       4.04569246      15.13433972      -0.02109558       0.02723023       0.10795666
O        4.01917839       4.03780536      19.11142190       0.13850398       0.06244262       0.28617870
O        2.01108064       0.01416624       0.61298849       0.41241822      -0.04758825      -0.26585399
O        0.00813395       2.02106940       0.61109614      -0.05766684       0.01038986      -0.26244200
O        2.02351628       0.02434885       4.66819799      -0.06064344      -0.06261144      -0.09922213
O        0.00198777       2.03772338       4.67787689       0.00052551       0.02616131      -0.14530735
O        2.05273227       4.03962430       9.08382596      -0.30120173       0.00815450      -0.09456855
O        4.04678450       2.02270400       9.11117046       0.11186294       0.23203817      -0.19926225
O        2.01653940       4.04452009      13.12070054       0.03261399       0.01935298       0.27729912
O        0.00551536       2.03134658      13.14562416      -0.04968031      -0.02827656       0.16130354
O        2.01706520       4.03772762      17.16962978       0.10172865       0.10137586      -0.04106042
O        0.02621083       2.04097935      17.17658062      -0.16233561      -0.19516966      -0.08354790
25
Lattice="4.10193266 0.0 0.0 0.0 4.10193266 0.0 0.0 0.0 21.25788461" Properties=species:S:1:pos:R:3:forces:R:3 virial="-26.242916394041252 -0.011674741965686063 0.08761448014302127 -0.011674741965686063 -26.4763477596106 0.15117539375591166 0.08761448014302127 0.15117539375591166 -21.60324162028521" config_type=perturb dataset=0.6 energy=-200.78282735 pbc="T T T"
Zr       0.02724212       4.09526353       0.10537555      -0.38906598       0.00188048       0.53676145
Zr       0.01310748       0.02757655       8.71951957       0.02984760      -0.25079705       0.69812296
Ti       0.02267364       4.07460550       4.46790141       0.02327335      -0.05764927      -0.67786801
Ti       0.02801530       4.10086763      13.06120484       0.10064330       0.01772111      -0.92331222
Ti       4.07102669       0.00833090      17.13908677       0.00405512      -0.07458973      -0.21854889
Pb       2.03004151       2.03304921       2.21875110       0.02125493      -0.02725689      -0.46487577
Pb       2.07010730       2.04833896       6.23128418       0.05059288      -0.00505396      -0.22617848
Pb       2.04854188       2.07019894      10.82573143       0.03043346       0.03130689      -0.43234651
Pb       2.08082742       2.08091975      14.87503937      -0.01278098      -0.00234582      -0.45678964
Pb       2.02230137       2.04290090      18.90270062       0.01849357       0.04801371      -0.47618862
O        0.00700060       4.08980181       2.64293072       0.01762802       0.03508797       1.27304979
O        4.08040334       4.09038088       6.74207649       0.05998864       0.10350215       0.06186180
O        0.01951626       0.00216098      11.25847861      -0.00506267      -0.01507404       0.93782700
O        4.08260780       4.09893136      15.33349860      -0.03356566       0.02591769       0.60471302
O        4.07206838       4.09094046      19.36291681       0.14933453       0.06070778       0.68315773
O        2.03754526       0.01435266       0.62105505       0.30396345      -0.04353592      -0.35683769
O        0.00824099       2.04766546       0.61913780      -0.03714297       0.01649795      -0.35295143
O        2.05014455       0.02466927       4.72962870      -0.10038523      -0.05908235      -0.05860173
O        0.00201393       2.06453860       4.73943496       0.00234730       0.10390970      -0.10403377
O        2.07974500       4.09278334       9.20336369      -0.25515847       0.01496362      -0.19190524
O        4.10003777       2.04932158       9.23106803       0.11245294       0.15504685      -0.29062060
O        2.04307585       4.09774356      13.29336113      -0.03453269       0.00678879       0.29271153
O        0.00558794       2.05807789      13.31861274      -0.04835410      -0.00963902       0.18354218
O        2.04360857       4.09086171      17.39557187       0.14034656       0.09823210      -0.00186525
O        0.02655575       2.06783741      17.40261418      -0.14860687      -0.17455274      -0.03882360
50
Lattice="9.6283967 0.0 0.03974258 0.0 5.93464191 0.0 -4.27253603 0.0 24.11603039" Properties=species:S:1:pos:R:3:forces:R:3 virial="33.59552065435849 0.8059800884402287 -12.719336346658288 0.8059800884402287 70.79312560496028 -0.32472481631667116 -12.719336346658288 -0.32472481631667116 81.78498796289945" config_type=perturb dataset=0.6 energy=-371.81284155 pbc="T T T"
Zr       7.23195235       0.01025435       9.99927522       2.84958351      -1.32950174      -0.08342911
Zr       5.58865585       2.98910062      15.04927529       1.68247852      -0.96905009       1.63997874
Zr       2.44952900       2.95902563       9.96187118       1.11485381       0.64410151       1.63588870
Zr       0.73930042       5.92065147      15.00446492       1.53456092       1.48524248       2.31365634
Ti      -1.14247246       2.98935432      19.96212192       1.38428776      -0.86153393       0.79713744
Ti       1.19541902       5.93343558       0.48667602       0.84231067      -0.37560327       0.14907502
Ti       4.07229949       0.00298441       5.12946964       0.37248390       0.49417800       3.57339174
Ti       3.67727669       0.00113049      19.95605506       0.66234014      -0.03743518       2.66369085
Ti       5.98649063       2.95390623       0.52074140       2.93768424       0.84493593      -0.21584254
Ti      -0.74171653       2.96887174       5.13820281       1.66976303       0.71435149      -0.04836580
Pb       5.13616094       2.95339918      11.22903444      -0.62055523       0.02637928      -0.40567528
Pb      -1.36271587       2.97910531      16.25311151      -0.90566386      -0.00003729       0.27995251
Pb       1.56786007       2.95122627      20.93976261      -0.83268103       0.28455688      -0.65012298
Pb       3.91993503       0.00965608       1.48710893      -0.44468855      -0.25025346      -1.11629702
Pb       6.80197525       0.01997719       6.17711023      -0.88465573      -0.10150456      -0.99292564
Pb       0.31420172       0.00359610      11.19808900      -0.95583033      -0.01099084      -0.54235978
Pb       3.49945273       0.01240839      16.30867105      -1.61177478      -0.04627382      -0.75042529
Pb      -3.20692104       0.02162216      20.93061733      -1.76949942      -0.23546407      -1.71886444
Pb       8.75035225       2.99008227       1.46253648      -1.84904857      -0.37982778      -0.68525706
Pb       1.98995761       2.95740150       6.11893382      -1.42092907       0.37408609      -0.49146790
O        7.23366509       0.02494947       8.16475179       0.14651416       0.03695731      -1.39479961
O        5.57517171       2.93988309      13.24245080       0.13556493      -0.03329331      -2.61859468
O       -0.87432619       2.97169550      18.29141030       0.39165967       0.02409728      -1.96497046
O        1.97398892       2.98492554      22.95981588       0.47435005      -0.04829675      -1.34638058
O        4.32609987       5.90898509       3.50071600       0.78208635      -0.00392018      -2.99907604
O        3.34136148       4.50311121       5.72250370      -0.11763995      -0.70303589       0.31878085
O        6.46661394       4.46783380      10.74601362      -0.81287568      -1.69436783       0.88782915
O        4.81889966       1.48319479      15.79511650      -0.04763992      -0.59729466       0.42479477
O        2.93537778       4.49656126      20.52492469      -0.27917208      -0.88760201       0.30416028
O        5.28730316       1.55111012       1.06066619      -1.59233398      -3.10994731       1.31735254
O        8.14636942       4.38818550       5.76242640      -0.54710457       1.26112320       0.58960323
O        1.67013252       4.48586063      10.69140747       0.01584883       0.24149804       0.27012544
O        4.82392227       4.47026035      15.75362636      -0.64979791       1.66291968       0.79021137
O       -1.86183470       4.41853473      20.48328930      -0.62161592       1.70811968       0.72996524
O        5.30179924       4.38772302       1.05820334      -1.36690294       2.55063589       1.12017767
O        2.37395215       2.97170992       8.15541280       0.09618631      -0.01544960      -2.11894703
O        0.80341980       5.91294795      13.19753817       0.14860928      -0.00418990      -2.20583957
O        3.94546800       5.92516007      18.30991941       0.74492412       0.01312762      -2.32675453
O       -2.81499418       0.00392761      22.89455043       0.62607143      -0.04261313       0.99238049
O       -0.51191437       2.98508678       3.43589085       0.44608112      -0.03130446      -0.36739895
O        8.17647103       1.55179503       5.74260562      -0.78973231      -1.86650835       0.78226771
O        1.68296764       1.45518844      10.68422493      -0.34427387      -0.89895107       0.56273756
O       -0.00055614       4.42556211      15.73101136      -0.48513607      -1.21095541       0.56563918
O       -1.90777914       1.55656014      20.52117703       0.02903730      -0.55033817       0.39014552
O        0.45915104       4.48466343       1.07323498       0.56878364       0.10201547       0.06887492
O        3.32130349       1.45750948       5.73379269       0.49980297      -0.16326998      -0.03014430
O        6.51128940       1.46995246      10.71416710      -1.43140536       3.00813508       1.47927416
O       -0.02333062       1.52506725      15.78196102       0.29261233      -0.29212706      -0.13740446
O        2.91056577       1.42497524      20.55339219      -0.02436742       0.58381040       0.21029172
O        0.44528289       1.42113137       1.04899194      -0.04315442       0.69066984       0.35395989
25
Lattice="3.86354799 0.0 0.0 0.0 3.86354799 0.0 0.0 0.0 20.86809811" Properties=species:S:1:pos:R:3:forces:R:3 virial="26.287126714150617 -0.03182505290674585 -0.36829827470106585 -0.03182505290674585 26.185146915343804 0.04132854330869032 -0.36829827470106585 0.04132854330869032 18.16906005203701" config_type=perturb dataset=0.6 energy=-200.89750098 pbc="T T T"
Zr       0.01904617       3.85421061       0.28364190      -0.07911637       0.11925057      -0.31947756
Zr       3.85514779       3.85785065      16.70978357       0.27116903       0.06378686      -0.20168575
Ti       3.83749010       0.01244893       4.53565379       0.16867724      -0.22632977      -0.88930601
Ti       3.84232575       3.86349626       8.57401683       0.31606267       0.02028630      -0.39601147
Ti       3.83613272       0.02103783      12.56468438       0.13135599      -0.29293236       0.44034392
Pb       1.95004792       1.92094424       2.36015685      -0.02072351       0.03825215       0.09423509
Pb       1.95650762       1.90734691       6.35288888      -0.15197859       0.09386038       0.35687718
Pb       1.94508983       1.91748072      10.35047190      -0.11104697       0.08661892       0.45105558
Pb       1.95370519       1.92930882      14.29408064      -0.16095862       0.01428478       0.75429321
Pb       1.91587171       1.94355588      18.72656129       0.04918193      -0.07945961       0.93765421
O        3.84126003       3.84343084       2.74935711       0.07796134       0.07688592       0.51630434
O        0.00808811       3.86116553       6.80946221      -0.02841846       0.02363112      -0.60124506
O        0.01348343       3.86227912      10.81065771      -0.05485292      -0.00362200      -1.03018720
O        3.86142628       3.85701848      14.75074787      -0.06346482      -0.06264566      -0.36338235
O        0.01270153       0.01664042      19.21687020       0.03103161      -0.07016451      -1.04280142
O        1.94898838       0.01569385       0.76729973      -0.01754085      -0.04253377       0.39901579
O        0.01952382       1.93000882       0.77091283      -0.02201355      -0.09911536       0.39277389
O        1.91818953       0.01039488       4.78666257       0.10585963      -0.12584655       0.23543395
O        0.00679308       1.91832923       4.80448664      -0.06674251       0.23253400       0.14276073
O        1.95432703       0.00368273       8.80475435      -0.42850478       0.05436622       0.27363692
O        3.84973546       1.94742859       8.82444236       0.19511488      -0.22280379       0.16831416
O        1.90792257       3.83856100      12.82715601       0.24483861      -0.01294904      -0.17265085
O        3.86251897       1.90444024      12.81066082      -0.07923505       0.37274103      -0.06846431
O        1.94112428       3.85828495      17.21566654      -0.25229779       0.02776802      -0.03654235
O        0.02881283       1.92755137      17.21399480      -0.05435813       0.01413616      -0.04094463
25
Lattice="3.96903452 0.0 0.42018206 0.0 3.96903452 0.0 0.07938069 0.0 21.00910305" Properties=species:S:1:pos:R:3:forces:R:3 virial="3.392229801620265 -0.08570055615642999 -18.503908480542098 -0.08570055615642999 0.9954473367741171 -0.046057346308169024 -18.503908480542098 -0.046057346308169024 0.5993866509356064" config_type=perturb dataset=0.6 energy=-200.67381181 pbc="T T T"
Zr       0.02064514       3.95944220       0.28762984       0.45302626       0.11784311       0.21946781
Zr       4.02396774       3.96318162      17.24195943       0.78829021       0.05627247       0.39284112
Ti       3.95951846       0.01278882       4.98364915       0.04070457      -0.12699932      -1.05108886
Ti       3.97984777       3.96898137       9.04982516       0.10212409      -0.04353569      -0.52937100
Ti       3.98866585       0.02161223      13.06678397       0.13803218      -0.12813780       0.36198695
Pb       2.01226798       1.97339182       2.58818276      -0.30849701       0.02725738      -0.19061345
Pb       2.03409210       1.95942324       6.60859605      -0.53783930       0.07040133       0.07091828
Pb       2.03756908       1.96983374      10.63194885      -0.54636030       0.07175679       0.14478834
Pb       2.06142086       1.98198478      14.60314136      -0.59603042       0.02569509       0.27626309
Pb       2.03941524       1.99662083      19.06145752      -0.43579246      -0.06935059       0.36705494
O        3.95659638       3.94836811       3.18569253       0.18543056       0.07737848       0.99883256
O        0.03421162       3.96658701       6.85635311       0.07365479       0.02701317      -0.11541523
O        0.05497451       3.96773101      10.88517131      -0.00229801       0.01200958      -0.55047348
O        4.02296563       3.96232673      15.27036942      -0.41764265      -0.05661733       0.08561248
O        0.08614786       0.01709475      19.34809922      -0.11057872      -0.07747952      -0.42511332
O        2.00512040       0.01612234       0.98444753      -0.28986753      -0.05133529       0.07850735
O        0.02298938       1.98270389       0.77824518       0.20142302      -0.06013537       0.00027854
O        1.98877000       0.01067869       5.02761952       0.28083844      -0.08034179       0.29210145
O        0.02525446       1.97070542       4.83768916       0.15398976       0.09987305       0.03353063
O        2.04117869       0.00378328       9.07679153      -0.09166216       0.05599686       0.33221564
O        3.98841239       2.00059927       9.30274865       0.42650987      -0.14709646       0.08291872
O        2.00880817       3.94336531      13.12132567       0.48339067       0.00831998      -0.09433921
O        4.01670821       1.95643721      13.31729212       0.15602502       0.15451653      -0.13638173
O        2.05960995       3.96362778      17.54310007      -0.33111952       0.01311544      -0.31167544
O        0.09508026       1.98017934      17.33344266       0.18424864       0.02357989      -0.33284621
25
Lattice="3.91539235 0.0 0.41450323 0.0 3.91539235 0.0 0.07830785 0.0 20.72516144" Properties=species:S:1:pos:R:3:forces:R:3 virial="18.620822110779834 -0.08064908694665905 -19.232349517501657 -0.08064908694665905 16.001592053215514 0.03713532431562845 -19.232349517501657 0.03713532431562845 15.883101340778056" config_type=perturb dataset=0.6 energy=-200.27391862 pbc="T T T"
Zr       0.02036612       3.90592967       0.28374247       0.68965304       0.11455958       0.25606896
Zr       3.96958314       3.90961856      17.00893141       1.08432150       0.06293349       0.40907497
Ti       3.90600490       0.01261598       4.91629428       0.16893201      -0.18365031      -0.74216123
Ti       3.92605946       3.91533992       8.92751523       0.30408845      -0.00767673      -0.14918116
Ti       3.93475836       0.02132013      12.89018415       0.23689396      -0.22681367       0.77012831
Pb       1.98507184       1.94672110       2.55320303      -0.38635020       0.03345967       0.02308969
Pb       2.00660101       1.93294130       6.51927975      -0.64287435       0.08384558       0.32714349
Pb       2.01003099       1.94321110      10.48825625      -0.65630572       0.08533796       0.41990038
Pb       2.03356042       1.95519792      14.40577742      -0.72806241       0.01902861       0.65169177
Pb       2.01185220       1.96963616      18.80383867      -0.50506197      -0.07466496       0.71865485
O        3.90312232       3.89500525       3.14263736       0.16977851       0.07176664       0.47302481
O        0.03374925       3.91297792       6.76368833       0.05763040       0.02201846      -0.73195710
O        0.05423152       3.91410646      10.73805636      -0.01837423      -0.00146244      -1.19775628
O        3.96859457       3.90877522      15.06398778      -0.47595756      -0.06081429      -0.38657952
O        0.08498356       0.01686371      19.08660636      -0.17605919      -0.06780536      -1.04572042
O        1.97802086       0.01590444       0.97114255      -0.46563289      -0.04658013       0.19747129
O        0.02267867       1.95590731       0.76772706       0.27225870      -0.08518879       0.14204569
O        1.96189144       0.01053436       4.95967038       0.18538951      -0.09799787       0.27022541
O        0.02491315       1.94407100       4.77230697       0.24811103       0.17000872       0.01817651
O        2.01359182       0.00373215       8.95411715      -0.27055911       0.05166997       0.29465315
O        3.93450832       1.97356084       9.17702041       0.53241326      -0.18805053       0.05204778
O        1.98165879       3.89007006      12.94398872       0.42012687       0.00504504      -0.15856749
O        3.96242172       1.92999564      13.13730664       0.25698218       0.28047896      -0.18132352
O        2.03177398       3.91005869      17.30600208      -0.56758321       0.02182626      -0.22460309
O        0.09379524       1.95341689      17.09917822       0.26624142       0.01872611      -0.20554727
25
Lattice="3.96903452 0.0 0.0 0.0 3.96903452 0.0 0.0 0.0 21.42928511" Properties=species:S:1:pos:R:3:forces:R:3 virial="-4.2146599009268435 -0.03898310699391319 -0.14486239881590074 -0.03898310699391319 -4.26440911953736 -0.07470969182242826 -0.14486239881590074 -0.07470969182242826 -10.431985235187542" config_type=perturb dataset=0.6 energy=-201.60880068 pbc="T T T"
Zr       0.01956619       3.95944220       0.29126963      -0.06426150       0.11495890      -0.17324798
Zr       3.96040497       3.96318162      17.15914475       0.19628185       0.04670108       0.00720641
Ti       3.94226517       0.01278882       4.65762705       0.11155359      -0.10303067      -1.35009928
Ti       3.94723285       3.96898137       8.80459016       0.09995890      -0.05096929      -0.95465981
Ti       3.94087073       0.02161223      12.90257514       0.15051106      -0.08687231      -0.18151151
Pb       2.00329012       1.97339182       2.42362643       0.00172208       0.01817599      -0.33523335
Pb       2.00992619       1.95942324       6.52373141      -0.11305293       0.04615082      -0.13584649
Pb       1.99819666       1.96983374      10.62881784      -0.07019003       0.06277845      -0.07255048
Pb       2.00704725       1.98198478      14.67847850      -0.11825881       0.02194207       0.02187465
Pb       1.96818079       1.99662083      19.23015787       0.00519924      -0.06007099       0.24298070
O        3.94613803       3.94836811       2.82329310       0.04590946       0.08848366       1.46075419
O        0.00830894       3.96658701       6.99258295      -0.05743583       0.03576910       0.48414148
O        0.01385157       3.96773101      11.10137901      -0.09160337       0.02350531       0.10891681
O        3.96685489       3.96232673      15.14742647      -0.07931688      -0.05496797       0.49620653
O        0.01304832       0.01709475      19.73365221       0.04667013      -0.08244761       0.07953197
O        2.00220165       0.01612234       0.78793403      -0.02701042      -0.05075759       0.07171756
O        0.02005688       1.98270389       0.79164429      -0.01577180      -0.04737900       0.06390613
O        1.97056190       0.01067869       4.91538599       0.16218371      -0.08459891       0.23435697
O        0.00697855       1.97070542       4.93368938      -0.09808254       0.08443982       0.15427608
O        2.00768606       0.00378328       9.04153269      -0.18287578       0.06263128       0.29250755
O        3.95484486       2.00059927       9.06175015       0.14964393      -0.13631780       0.19965772
O        1.96001462       3.94336531      13.17210518       0.25241993       0.00261691      -0.09163813
O        3.96797741       1.95643721      13.15516641      -0.11500017       0.11495557      -0.00354689
O        1.99412284       3.96362778      17.67863198      -0.13664704       0.01098421      -0.30827165
O        0.02959951       1.98017934      17.67691528      -0.05254680       0.02331898      -0.31142920
50
Lattice="9.79919643 0.0 0.54628923 0.0 6.21950487 0.0 -4.27984289 0.0 25.2744168" Properties=species:S:1:pos:R:3:forces:R:3 virial="-7.2237365283287716 0.6986607760255632 -4.071913934600821 0.6986607760255632 -11.87617242119028 -0.21145264196121896 -4.071913934600821 -0.21145264196121896 -32.5865560926052" config_type=perturb dataset=0.6 energy=-374.25735543 pbc="T T T"